 Gaussian 09, Revision D.01,
 Gaussian 09:  EM64L-G09RevD.01 24-Apr-2013

 ------------------------------------
 # gen bp86 int=ultrafine pseudo=read
 ------------------------------------

 -------------------------------
 Ru (PPh3)3 H4 from high temp MD
 -------------------------------
 Symbolic Z-matrix:
 Charge =  0 Multiplicity = 1

                         Standard orientation:
 ---------------------------------------------------------------------
 Center     Atomic      Atomic             Coordinates (Angstroms)
 Number     Number       Type             X           Y           Z
 ---------------------------------------------------------------------
      1         44           0       -0.000001   -0.550311    0.000249
      2         30           0        0.000020    2.069579   -0.000691
      3         15           0        2.365629   -0.301952   -0.057851
      4         15           0       -2.365631   -0.301880    0.058109
      5          8           0        0.064419    0.311849    2.957999
      6          8           0       -0.064381    0.309479   -2.958221
      7          6           0        0.040009   -0.112851    1.860829
      8          6           0       -0.039991   -0.114231   -1.860661
      9          6           0        1.872020    2.457499   -0.542221
     10          6           0        2.835900    1.413618   -0.646271
     11          6           0        4.133630    1.650238   -1.149231
     12          1           0        4.851999    0.827868   -1.239581
     13          6           0        4.507110    2.941298   -1.552471
     14          1           0        5.512020    3.119777   -1.950301
     15          6           0        3.584950    3.994128   -1.447291
     16          1           0        3.868501    5.005018   -1.762661
     17          6           0        2.294210    3.747038   -0.949251
     18          1           0        1.589971    4.586239   -0.889891
     19          6           0       -1.872010    2.457920    0.540449
     20          6           0       -2.294200    3.747770    0.946499
     21          1           0       -1.589939    4.586920    0.886589
     22          6           0       -3.584980    3.995250    1.444249
     23          1           0       -3.868539    5.006381    1.758849
     24          6           0       -4.507180    2.942521    1.550119
     25          1           0       -5.512120    3.121321    1.947729
     26          6           0       -4.133690    1.651161    1.147859
     27          1           0       -4.852081    0.828881    1.238759
     28          6           0       -2.835910    1.414140    0.645199
     29          6           0        3.223069   -0.477412    1.591719
     30          6           0        3.998399    0.550228    2.161849
     31          1           0        4.133690    1.493428    1.624119
     32          6           0        4.595159    0.367558    3.422079
     33          1           0        5.190889    1.175767    3.859479
     34          6           0        4.428229   -0.839602    4.116499
     35          1           0        4.893669   -0.978362    5.097929
     36          6           0        3.655598   -1.869432    3.551269
     37          1           0        3.517348   -2.813022    4.089739
     38          6           0        3.051289   -1.687502    2.299779
     39          1           0        2.437778   -2.487342    1.868639
     40          6           0        3.358149   -1.491772   -1.109741
     41          6           0        4.697628   -1.816242   -0.800041
     42          1           0        5.172789   -1.384583    0.086659
     43          6           0        5.421328   -2.701283   -1.614881
     44          1           0        6.459348   -2.943173   -1.362681
     45          6           0        4.816768   -3.277902   -2.743601
     46          1           0        5.381568   -3.971153   -3.375701
     47          6           0        3.482538   -2.969102   -3.052641
     48          1           0        3.000198   -3.421222   -3.925661
     49          6           0        2.755928   -2.085512   -2.239091
     50          1           0        1.712618   -1.860461   -2.478621
     51          6           0       -3.222991   -0.478600   -1.591361
     52          6           0       -3.998281    0.548621   -2.162321
     53          1           0       -4.133600    1.492221   -1.625311
     54          6           0       -4.594961    0.365001   -3.422451
     55          1           0       -5.190651    1.172881   -3.860501
     56          6           0       -4.427981   -0.842689   -4.115951
     57          1           0       -4.893361   -0.982189   -5.097301
     58          6           0       -3.655402   -1.872099   -3.549891
     59          1           0       -3.517122   -2.816090   -4.087641
     60          6           0       -3.051171   -1.689220   -2.298501
     61          1           0       -2.437692   -2.488740   -1.866721
     62          6           0       -3.358241   -1.490890    1.110849
     63          6           0       -4.697612   -1.815799    0.801149
     64          1           0       -5.172621   -1.384989   -0.086051
     65          6           0       -5.421382   -2.700199    1.616609
     66          1           0       -6.459312   -2.942449    1.364399
     67          6           0       -4.817002   -3.275749    2.745979
     68          1           0       -5.381852   -3.968509    3.378569
     69          6           0       -3.482862   -2.966530    3.055019
     70          1           0       -3.000672   -3.417820    3.928549
     71          6           0       -2.756182   -2.083580    2.240839
     72          1           0       -1.712952   -1.858210    2.480399
 ---------------------------------------------------------------------

 SCF Done:  E(RB-P86) =  -4173.53715135     A.U. after   19 cycles

 The electronic state is 1-A.
 Alpha  occ. eigenvalues -- -345.78259 -76.38355 -76.38355 -41.64400 -36.71161
 Alpha  occ. eigenvalues --  -36.70935 -36.70813 -18.81643 -18.81643  -9.98746
 Alpha  occ. eigenvalues --   -9.98745  -9.92535  -9.92535  -9.92211  -9.92211
 Alpha  occ. eigenvalues --   -9.91642  -9.91642  -9.91538  -9.91538  -9.91518
 Alpha  occ. eigenvalues --   -9.91518  -9.91451  -9.91450  -9.91446  -9.91446
 Alpha  occ. eigenvalues --   -9.91375  -9.91375  -9.91248  -9.91248  -9.91218
 Alpha  occ. eigenvalues --   -9.91218  -9.91211  -9.91211  -9.91201  -9.91201
 Alpha  occ. eigenvalues --   -9.91132  -9.91132  -9.90396  -9.90396  -9.90141
 Alpha  occ. eigenvalues --   -9.90141  -9.90034  -9.90034  -9.89613  -9.89612
 Alpha  occ. eigenvalues --   -9.88825  -9.88825  -6.33909  -6.33909  -4.58878
 Alpha  occ. eigenvalues --   -4.55573  -4.55573  -4.55504  -4.55504  -4.55235
 Alpha  occ. eigenvalues --   -4.55235  -3.02560  -3.02108  -3.01768  -2.85971
 Alpha  occ. eigenvalues --   -1.76007  -1.74415  -1.72337  -1.00467  -1.00455
 Alpha  occ. eigenvalues --   -0.78996  -0.78989  -0.78373  -0.78372  -0.76823
 Alpha  occ. eigenvalues --   -0.76794  -0.70716  -0.70658  -0.68600  -0.68598
 Alpha  occ. eigenvalues --   -0.68362  -0.68361  -0.68087  -0.68084  -0.66968
 Alpha  occ. eigenvalues --   -0.66956  -0.66371  -0.66209  -0.59777  -0.59526
 Alpha  occ. eigenvalues --   -0.55708  -0.55679  -0.55413  -0.55407  -0.54751
 Alpha  occ. eigenvalues --   -0.54713  -0.53867  -0.53806  -0.53193  -0.52930
 Alpha  occ. eigenvalues --   -0.51329  -0.50597  -0.50170  -0.48415  -0.47472
 Alpha  occ. eigenvalues --   -0.47279  -0.46566  -0.46372  -0.44749  -0.44251
 Alpha  occ. eigenvalues --   -0.41853  -0.41695  -0.41588  -0.41551  -0.41383
 Alpha  occ. eigenvalues --   -0.41203  -0.40964  -0.40633  -0.40610  -0.40376
 Alpha  occ. eigenvalues --   -0.40286  -0.39845  -0.39616  -0.39321  -0.38956
 Alpha  occ. eigenvalues --   -0.38790  -0.38769  -0.38712  -0.38426  -0.38247
 Alpha  occ. eigenvalues --   -0.38240  -0.38044  -0.38033  -0.37853  -0.37828
 Alpha  occ. eigenvalues --   -0.37526  -0.37176  -0.36823  -0.36511  -0.36507
 Alpha  occ. eigenvalues --   -0.35133  -0.34798  -0.34418  -0.34085  -0.34014
 Alpha  occ. eigenvalues --   -0.33627  -0.33555  -0.32886  -0.32705  -0.32329
 Alpha  occ. eigenvalues --   -0.32270  -0.31464  -0.31305  -0.31065  -0.31044
 Alpha  occ. eigenvalues --   -0.30539  -0.29910  -0.29674  -0.28604  -0.28591
 Alpha  occ. eigenvalues --   -0.26669  -0.26392  -0.24856  -0.24802  -0.24283
 Alpha  occ. eigenvalues --   -0.24257  -0.24040  -0.23919  -0.23561  -0.23197
 Alpha  occ. eigenvalues --   -0.22796  -0.22636  -0.22581  -0.22104  -0.22029
 Alpha  occ. eigenvalues --   -0.21233  -0.19992  -0.18236  -0.17378
 Alpha virt. eigenvalues --   -0.10219  -0.07475  -0.07127  -0.06738  -0.06710
 Alpha virt. eigenvalues --   -0.06375  -0.06034  -0.05669  -0.05587  -0.05271
 Alpha virt. eigenvalues --   -0.05016  -0.04849  -0.04525  -0.03635  -0.01557

 Mulliken charges:
               1
     1  Ru  -0.054315
     2  Zn  -0.241265
     3  P    0.510622
     4  P    0.510678
     5  O   -0.112749
     6  O   -0.112753
     7  C   -0.127519
     8  C   -0.127502
     9  C    0.002106
    10  C    0.009743
    11  C   -0.189955
    12  H    0.140884
    13  C   -0.099176
    14  H    0.106834
    15  C   -0.129692
    16  H    0.105162
    17  C   -0.062073
    18  H    0.123566
    19  C    0.002119
    20  C   -0.062078
    21  H    0.123565
    22  C   -0.129688
    23  H    0.105161
    24  C   -0.099161
    25  H    0.106835
    26  C   -0.189968
    27  H    0.140892
    28  C    0.009699
    29  C   -0.065725
    30  C   -0.117684
    31  H    0.165048
    32  C   -0.140027
    33  H    0.113068
    34  C   -0.089932
    35  H    0.113209
    36  C   -0.106811
    37  H    0.111694
    38  C   -0.161150
    39  H    0.127890
    40  C   -0.055931
    41  C   -0.191499
    42  H    0.166928
    43  C   -0.119452
    44  H    0.114218
    45  C   -0.098772
    46  H    0.114275
    47  C   -0.133790
    48  H    0.113639
    49  C   -0.146694
    50  H    0.157532
    51  C   -0.065752
    52  C   -0.117670
    53  H    0.165051
    54  C   -0.140039
    55  H    0.113069
    56  C   -0.089927
    57  H    0.113209
    58  C   -0.106805
    59  H    0.111694
    60  C   -0.161154
    61  H    0.127886
    62  C   -0.055955
    63  C   -0.191440
    64  H    0.166919
    65  C   -0.119465
    66  H    0.114217
    67  C   -0.098771
    68  H    0.114275
    69  C   -0.133790
    70  H    0.113640
    71  C   -0.146725
    72  H    0.157532
 Sum of Mulliken charges =   0.00000

 Dipole moment (field-independent basis, Debye):
    X=              0.0001    Y=             -2.8344    Z=              0.0008  Tot=              2.8344
 Quadrupole moment (field-independent basis, Debye-Ang):
   XX=           -256.7651   YY=           -274.3697   ZZ=           -285.0902
   XY=              0.0026   XZ=              4.9250   YZ=             -0.0034

 Normal termination of Gaussian 09 at Sat Apr 11 15:12:00 2020.
