 Gaussian 09, Revision D.01,
 Gaussian 09:  EM64L-G09RevD.01 24-Apr-2013

 ---------------------------------------------------------------------
 #p bp86 gen pseudo=read int=grid=ultrafine scrf=(pcm,solvent=benzene)
 ---------------------------------------------------------------------

 -------------------------------
 Ru (PPh3)3 H4 from high temp MD
 -------------------------------
 Symbolic Z-matrix:
 Charge =  0 Multiplicity = 1

                         Standard orientation:
 ---------------------------------------------------------------------
 Center     Atomic      Atomic             Coordinates (Angstroms)
 Number     Number       Type             X           Y           Z
 ---------------------------------------------------------------------
      1         44           0       -0.000001   -0.550311    0.000249
      2         30           0        0.000020    2.069579   -0.000691
      3         15           0        2.365629   -0.301952   -0.057851
      4         15           0       -2.365631   -0.301880    0.058109
      5          8           0        0.064419    0.311849    2.957999
      6          8           0       -0.064381    0.309479   -2.958221
      7          6           0        0.040009   -0.112851    1.860829
      8          6           0       -0.039991   -0.114231   -1.860661
      9          6           0        1.872020    2.457499   -0.542221
     10          6           0        2.835900    1.413618   -0.646271
     11          6           0        4.133630    1.650238   -1.149231
     12          1           0        4.851999    0.827868   -1.239581
     13          6           0        4.507110    2.941298   -1.552471
     14          1           0        5.512020    3.119777   -1.950301
     15          6           0        3.584950    3.994128   -1.447291
     16          1           0        3.868501    5.005018   -1.762661
     17          6           0        2.294210    3.747038   -0.949251
     18          1           0        1.589971    4.586239   -0.889891
     19          6           0       -1.872010    2.457920    0.540449
     20          6           0       -2.294200    3.747770    0.946499
     21          1           0       -1.589939    4.586920    0.886589
     22          6           0       -3.584980    3.995250    1.444249
     23          1           0       -3.868539    5.006381    1.758849
     24          6           0       -4.507180    2.942521    1.550119
     25          1           0       -5.512120    3.121321    1.947729
     26          6           0       -4.133690    1.651161    1.147859
     27          1           0       -4.852081    0.828881    1.238759
     28          6           0       -2.835910    1.414140    0.645199
     29          6           0        3.223069   -0.477412    1.591719
     30          6           0        3.998399    0.550228    2.161849
     31          1           0        4.133690    1.493428    1.624119
     32          6           0        4.595159    0.367558    3.422079
     33          1           0        5.190889    1.175767    3.859479
     34          6           0        4.428229   -0.839602    4.116499
     35          1           0        4.893669   -0.978362    5.097929
     36          6           0        3.655598   -1.869432    3.551269
     37          1           0        3.517348   -2.813022    4.089739
     38          6           0        3.051289   -1.687502    2.299779
     39          1           0        2.437778   -2.487342    1.868639
     40          6           0        3.358149   -1.491772   -1.109741
     41          6           0        4.697628   -1.816242   -0.800041
     42          1           0        5.172789   -1.384583    0.086659
     43          6           0        5.421328   -2.701283   -1.614881
     44          1           0        6.459348   -2.943173   -1.362681
     45          6           0        4.816768   -3.277902   -2.743601
     46          1           0        5.381568   -3.971153   -3.375701
     47          6           0        3.482538   -2.969102   -3.052641
     48          1           0        3.000198   -3.421222   -3.925661
     49          6           0        2.755928   -2.085512   -2.239091
     50          1           0        1.712618   -1.860461   -2.478621
     51          6           0       -3.222991   -0.478600   -1.591361
     52          6           0       -3.998281    0.548621   -2.162321
     53          1           0       -4.133600    1.492221   -1.625311
     54          6           0       -4.594961    0.365001   -3.422451
     55          1           0       -5.190651    1.172881   -3.860501
     56          6           0       -4.427981   -0.842689   -4.115951
     57          1           0       -4.893361   -0.982189   -5.097301
     58          6           0       -3.655402   -1.872099   -3.549891
     59          1           0       -3.517122   -2.816090   -4.087641
     60          6           0       -3.051171   -1.689220   -2.298501
     61          1           0       -2.437692   -2.488740   -1.866721
     62          6           0       -3.358241   -1.490890    1.110849
     63          6           0       -4.697612   -1.815799    0.801149
     64          1           0       -5.172621   -1.384989   -0.086051
     65          6           0       -5.421382   -2.700199    1.616609
     66          1           0       -6.459312   -2.942449    1.364399
     67          6           0       -4.817002   -3.275749    2.745979
     68          1           0       -5.381852   -3.968509    3.378569
     69          6           0       -3.482862   -2.966530    3.055019
     70          1           0       -3.000672   -3.417820    3.928549
     71          6           0       -2.756182   -2.083580    2.240839
     72          1           0       -1.712952   -1.858210    2.480399
 ---------------------------------------------------------------------

 SCF Done:  E(RB-P86) =  -1950.86378017     A.U. after   17 cycles

 The electronic state is 1-A.
 Alpha  occ. eigenvalues --  -18.84637 -18.84633 -10.00170 -10.00169  -9.93332
 Alpha  occ. eigenvalues --   -9.93331  -9.93018  -9.93018  -9.92570  -9.92570
 Alpha  occ. eigenvalues --   -9.92473  -9.92473  -9.92440  -9.92440  -9.92398
 Alpha  occ. eigenvalues --   -9.92397  -9.92379  -9.92379  -9.92313  -9.92313
 Alpha  occ. eigenvalues --   -9.92191  -9.92191  -9.92182  -9.92182  -9.92158
 Alpha  occ. eigenvalues --   -9.92158  -9.92104  -9.92104  -9.92088  -9.92087
 Alpha  occ. eigenvalues --   -9.91495  -9.91495  -9.91261  -9.91261  -9.91147
 Alpha  occ. eigenvalues --   -9.91147  -9.90716  -9.90715  -9.89640  -9.89637
 Alpha  occ. eigenvalues --   -4.80011  -3.03669  -3.03220  -3.02884  -2.85461
 Alpha  occ. eigenvalues --   -1.75353  -1.73574  -1.71232  -1.00645  -1.00629
 Alpha  occ. eigenvalues --   -0.78504  -0.78494  -0.77826  -0.77825  -0.76445
 Alpha  occ. eigenvalues --   -0.76415  -0.70431  -0.70363  -0.68081  -0.68079
 Alpha  occ. eigenvalues --   -0.67859  -0.67858  -0.67580  -0.67577  -0.66600
 Alpha  occ. eigenvalues --   -0.66589  -0.66012  -0.65846  -0.59640  -0.59377
 Alpha  occ. eigenvalues --   -0.55159  -0.55127  -0.54880  -0.54872  -0.54206
 Alpha  occ. eigenvalues --   -0.54160  -0.53410  -0.53349  -0.52750  -0.52494
 Alpha  occ. eigenvalues --   -0.51041  -0.50192  -0.49910  -0.48218  -0.46834
 Alpha  occ. eigenvalues --   -0.46685  -0.46012  -0.45827  -0.44263  -0.43784
 Alpha  occ. eigenvalues --   -0.41380  -0.41077  -0.41058  -0.40914  -0.40691
 Alpha  occ. eigenvalues --   -0.40437  -0.40394  -0.40011  -0.39977  -0.39689
 Alpha  occ. eigenvalues --   -0.39577  -0.39230  -0.38978  -0.38784  -0.38382
 Alpha  occ. eigenvalues --   -0.38342  -0.38222  -0.37692  -0.37635  -0.37609
 Alpha  occ. eigenvalues --   -0.37536  -0.37468  -0.37350  -0.37103  -0.37063
 Alpha  occ. eigenvalues --   -0.36756  -0.36305  -0.36289  -0.35945  -0.35940
 Alpha  occ. eigenvalues --   -0.34577  -0.34399  -0.33876  -0.33335  -0.33244
 Alpha  occ. eigenvalues --   -0.32901  -0.32829  -0.32259  -0.32099  -0.31705
 Alpha  occ. eigenvalues --   -0.31619  -0.30829  -0.30647  -0.30426  -0.30403
 Alpha  occ. eigenvalues --   -0.29929  -0.29295  -0.29032  -0.28057  -0.28054
 Alpha  occ. eigenvalues --   -0.26322  -0.25835  -0.24082  -0.23981  -0.23434
 Alpha  occ. eigenvalues --   -0.23421  -0.23219  -0.23107  -0.22788  -0.22483
 Alpha  occ. eigenvalues --   -0.22198  -0.21992  -0.21976  -0.21441  -0.21364
 Alpha  occ. eigenvalues --   -0.20552  -0.19454  -0.17480  -0.16598
 Alpha virt. eigenvalues --   -0.09467  -0.06459  -0.06038  -0.05594  -0.05574
 Alpha virt. eigenvalues --   -0.05363  -0.04937  -0.04634  -0.04554  -0.04311
 Alpha virt. eigenvalues --   -0.03954  -0.03776  -0.03472  -0.02634  -0.00999

 Mulliken charges:
               1
     1  Ru  -0.398381
     2  Zn   0.078287
     3  P    0.133011
     4  P    0.133023
     5  O   -0.276804
     6  O   -0.276808
     7  C    0.235347
     8  C    0.235359
     9  C    0.070841
    10  C   -0.050105
    11  C   -0.101939
    12  H    0.101245
    13  C   -0.119077
    14  H    0.105436
    15  C   -0.096500
    16  H    0.103807
    17  C   -0.159179
    18  H    0.104523
    19  C    0.070842
    20  C   -0.159176
    21  H    0.104523
    22  C   -0.096503
    23  H    0.103806
    24  C   -0.119075
    25  H    0.105436
    26  C   -0.101944
    27  H    0.101254
    28  C   -0.050098
    29  C    0.005473
    30  C   -0.119183
    31  H    0.122540
    32  C   -0.105837
    33  H    0.113997
    34  C   -0.101400
    35  H    0.112339
    36  C   -0.106822
    37  H    0.113722
    38  C   -0.113015
    39  H    0.130138
    40  C    0.015303
    41  C   -0.122210
    42  H    0.121405
    43  C   -0.109863
    44  H    0.114110
    45  C   -0.101116
    46  H    0.113944
    47  C   -0.106597
    48  H    0.116860
    49  C   -0.111725
    50  H    0.127371
    51  C    0.005460
    52  C   -0.119181
    53  H    0.122542
    54  C   -0.105836
    55  H    0.113998
    56  C   -0.101402
    57  H    0.112339
    58  C   -0.106819
    59  H    0.113723
    60  C   -0.113016
    61  H    0.130139
    62  C    0.015297
    63  C   -0.122211
    64  H    0.121403
    65  C   -0.109862
    66  H    0.114108
    67  C   -0.101118
    68  H    0.113944
    69  C   -0.106597
    70  H    0.116859
    71  C   -0.111729
    72  H    0.127373
 Sum of Mulliken charges =   0.00000

 Dipole moment (field-independent basis, Debye):
    X=              0.0001    Y=             -3.3425    Z=              0.0011  Tot=              3.3425
 Quadrupole moment (field-independent basis, Debye-Ang):
   XX=           -240.6076   YY=           -265.3358   ZZ=           -276.3919
   XY=              0.0025   XZ=              5.2202   YZ=             -0.0035

 Normal termination of Gaussian 09 at Sat Apr 11 14:25:51 2020.
