 Gaussian 09, Revision D.01,
 Gaussian 09:  EM64L-G09RevD.01 24-Apr-2013

 --------------------------------------------------------------
 # gen bp86 int=ultrafine pseudo=read empiricaldispersion=gd3bj
 --------------------------------------------------------------

 -------------------------------
 Ru (PPh3)3 H4 from high temp MD
 -------------------------------
 Symbolic Z-matrix:
 Charge =  0 Multiplicity = 1

                         Standard orientation:
 ---------------------------------------------------------------------
 Center     Atomic      Atomic             Coordinates (Angstroms)
 Number     Number       Type             X           Y           Z
 ---------------------------------------------------------------------
      1         44           0       -0.000001   -0.550311    0.000249
      2         30           0        0.000020    2.069579   -0.000691
      3         15           0        2.365629   -0.301952   -0.057851
      4         15           0       -2.365631   -0.301880    0.058109
      5          8           0        0.064419    0.311849    2.957999
      6          8           0       -0.064381    0.309479   -2.958221
      7          6           0        0.040009   -0.112851    1.860829
      8          6           0       -0.039991   -0.114231   -1.860661
      9          6           0        1.872020    2.457499   -0.542221
     10          6           0        2.835900    1.413618   -0.646271
     11          6           0        4.133630    1.650238   -1.149231
     12          1           0        4.851999    0.827868   -1.239581
     13          6           0        4.507110    2.941298   -1.552471
     14          1           0        5.512020    3.119777   -1.950301
     15          6           0        3.584950    3.994128   -1.447291
     16          1           0        3.868501    5.005018   -1.762661
     17          6           0        2.294210    3.747038   -0.949251
     18          1           0        1.589971    4.586239   -0.889891
     19          6           0       -1.872010    2.457920    0.540449
     20          6           0       -2.294200    3.747770    0.946499
     21          1           0       -1.589939    4.586920    0.886589
     22          6           0       -3.584980    3.995250    1.444249
     23          1           0       -3.868539    5.006381    1.758849
     24          6           0       -4.507180    2.942521    1.550119
     25          1           0       -5.512120    3.121321    1.947729
     26          6           0       -4.133690    1.651161    1.147859
     27          1           0       -4.852081    0.828881    1.238759
     28          6           0       -2.835910    1.414140    0.645199
     29          6           0        3.223069   -0.477412    1.591719
     30          6           0        3.998399    0.550228    2.161849
     31          1           0        4.133690    1.493428    1.624119
     32          6           0        4.595159    0.367558    3.422079
     33          1           0        5.190889    1.175767    3.859479
     34          6           0        4.428229   -0.839602    4.116499
     35          1           0        4.893669   -0.978362    5.097929
     36          6           0        3.655598   -1.869432    3.551269
     37          1           0        3.517348   -2.813022    4.089739
     38          6           0        3.051289   -1.687502    2.299779
     39          1           0        2.437778   -2.487342    1.868639
     40          6           0        3.358149   -1.491772   -1.109741
     41          6           0        4.697628   -1.816242   -0.800041
     42          1           0        5.172789   -1.384583    0.086659
     43          6           0        5.421328   -2.701283   -1.614881
     44          1           0        6.459348   -2.943173   -1.362681
     45          6           0        4.816768   -3.277902   -2.743601
     46          1           0        5.381568   -3.971153   -3.375701
     47          6           0        3.482538   -2.969102   -3.052641
     48          1           0        3.000198   -3.421222   -3.925661
     49          6           0        2.755928   -2.085512   -2.239091
     50          1           0        1.712618   -1.860461   -2.478621
     51          6           0       -3.222991   -0.478600   -1.591361
     52          6           0       -3.998281    0.548621   -2.162321
     53          1           0       -4.133600    1.492221   -1.625311
     54          6           0       -4.594961    0.365001   -3.422451
     55          1           0       -5.190651    1.172881   -3.860501
     56          6           0       -4.427981   -0.842689   -4.115951
     57          1           0       -4.893361   -0.982189   -5.097301
     58          6           0       -3.655402   -1.872099   -3.549891
     59          1           0       -3.517122   -2.816090   -4.087641
     60          6           0       -3.051171   -1.689220   -2.298501
     61          1           0       -2.437692   -2.488740   -1.866721
     62          6           0       -3.358241   -1.490890    1.110849
     63          6           0       -4.697612   -1.815799    0.801149
     64          1           0       -5.172621   -1.384989   -0.086051
     65          6           0       -5.421382   -2.700199    1.616609
     66          1           0       -6.459312   -2.942449    1.364399
     67          6           0       -4.817002   -3.275749    2.745979
     68          1           0       -5.381852   -3.968509    3.378569
     69          6           0       -3.482862   -2.966530    3.055019
     70          1           0       -3.000672   -3.417820    3.928549
     71          6           0       -2.756182   -2.083580    2.240839
     72          1           0       -1.712952   -1.858210    2.480399
 ---------------------------------------------------------------------

 SCF Done:  E(RB-P86) =  -1951.10077140     A.U. after   18 cycles

 The electronic state is 1-A.
 Alpha  occ. eigenvalues --  -18.84242 -18.84238  -9.99793  -9.99791  -9.93199
 Alpha  occ. eigenvalues --   -9.93198  -9.92867  -9.92867  -9.92500  -9.92500
 Alpha  occ. eigenvalues --   -9.92446  -9.92446  -9.92375  -9.92374  -9.92358
 Alpha  occ. eigenvalues --   -9.92358  -9.92296  -9.92296  -9.92283  -9.92283
 Alpha  occ. eigenvalues --   -9.92146  -9.92145  -9.92121  -9.92121  -9.92068
 Alpha  occ. eigenvalues --   -9.92068  -9.92031  -9.92031  -9.91876  -9.91876
 Alpha  occ. eigenvalues --   -9.91274  -9.91273  -9.91066  -9.91066  -9.90936
 Alpha  occ. eigenvalues --   -9.90936  -9.90484  -9.90483  -9.89456  -9.89453
 Alpha  occ. eigenvalues --   -4.80068  -3.03743  -3.03272  -3.02925  -2.85174
 Alpha  occ. eigenvalues --   -1.75053  -1.73299  -1.70970  -1.00211  -1.00195
 Alpha  occ. eigenvalues --   -0.78396  -0.78386  -0.77724  -0.77723  -0.76207
 Alpha  occ. eigenvalues --   -0.76176  -0.70307  -0.70241  -0.68014  -0.68012
 Alpha  occ. eigenvalues --   -0.67765  -0.67764  -0.67503  -0.67501  -0.66404
 Alpha  occ. eigenvalues --   -0.66391  -0.65791  -0.65624  -0.59501  -0.59243
 Alpha  occ. eigenvalues --   -0.55105  -0.55076  -0.54802  -0.54796  -0.54142
 Alpha  occ. eigenvalues --   -0.54103  -0.53263  -0.53202  -0.52587  -0.52318
 Alpha  occ. eigenvalues --   -0.50780  -0.50063  -0.49645  -0.47779  -0.46797
 Alpha  occ. eigenvalues --   -0.46604  -0.45929  -0.45749  -0.44139  -0.43653
 Alpha  occ. eigenvalues --   -0.41103  -0.41049  -0.41012  -0.40830  -0.40568
 Alpha  occ. eigenvalues --   -0.40340  -0.40234  -0.39950  -0.39927  -0.39561
 Alpha  occ. eigenvalues --   -0.39453  -0.39030  -0.38739  -0.38548  -0.38178
 Alpha  occ. eigenvalues --   -0.38160  -0.38055  -0.37645  -0.37580  -0.37555
 Alpha  occ. eigenvalues --   -0.37427  -0.37291  -0.37285  -0.37004  -0.36974
 Alpha  occ. eigenvalues --   -0.36638  -0.36243  -0.36131  -0.35807  -0.35802
 Alpha  occ. eigenvalues --   -0.34446  -0.34127  -0.33734  -0.33212  -0.33126
 Alpha  occ. eigenvalues --   -0.32754  -0.32668  -0.32147  -0.31957  -0.31495
 Alpha  occ. eigenvalues --   -0.31385  -0.30784  -0.30615  -0.30357  -0.30335
 Alpha  occ. eigenvalues --   -0.29810  -0.29178  -0.28933  -0.27886  -0.27881
 Alpha  occ. eigenvalues --   -0.26229  -0.25654  -0.23932  -0.23854  -0.23308
 Alpha  occ. eigenvalues --   -0.23291  -0.23074  -0.22960  -0.22630  -0.22266
 Alpha  occ. eigenvalues --   -0.21952  -0.21722  -0.21697  -0.21162  -0.21161
 Alpha  occ. eigenvalues --   -0.20384  -0.19179  -0.17284  -0.16466
 Alpha virt. eigenvalues --   -0.09283  -0.06248  -0.05894  -0.05451  -0.05406
 Alpha virt. eigenvalues --   -0.05172  -0.04783  -0.04438  -0.04343  -0.04131
 Alpha virt. eigenvalues --   -0.03751  -0.03623  -0.03292  -0.02381  -0.00750

 Mulliken charges:
               1
     1  Ru  -0.407361
     2  Zn   0.075270
     3  P    0.132649
     4  P    0.132660
     5  O   -0.265892
     6  O   -0.265894
     7  C    0.233676
     8  C    0.233690
     9  C    0.074628
    10  C   -0.049517
    11  C   -0.098344
    12  H    0.097092
    13  C   -0.112515
    14  H    0.097690
    15  C   -0.089768
    16  H    0.096770
    17  C   -0.151098
    18  H    0.099909
    19  C    0.074628
    20  C   -0.151094
    21  H    0.099909
    22  C   -0.089772
    23  H    0.096769
    24  C   -0.112514
    25  H    0.097691
    26  C   -0.098349
    27  H    0.097102
    28  C   -0.049513
    29  C    0.005252
    30  C   -0.116029
    31  H    0.122080
    32  C   -0.099924
    33  H    0.106109
    34  C   -0.095483
    35  H    0.103688
    36  C   -0.100654
    37  H    0.105174
    38  C   -0.108153
    39  H    0.126036
    40  C    0.016463
    41  C   -0.119805
    42  H    0.117945
    43  C   -0.104421
    44  H    0.105284
    45  C   -0.095551
    46  H    0.104851
    47  C   -0.101043
    48  H    0.108646
    49  C   -0.106063
    50  H    0.126351
    51  C    0.005241
    52  C   -0.116025
    53  H    0.122080
    54  C   -0.099922
    55  H    0.106110
    56  C   -0.095485
    57  H    0.103688
    58  C   -0.100651
    59  H    0.105175
    60  C   -0.108152
    61  H    0.126036
    62  C    0.016456
    63  C   -0.119807
    64  H    0.117946
    65  C   -0.104419
    66  H    0.105283
    67  C   -0.095554
    68  H    0.104851
    69  C   -0.101044
    70  H    0.108646
    71  C   -0.106066
    72  H    0.126353
 Sum of Mulliken charges =   0.00000

 Dipole moment (field-independent basis, Debye):
    X=              0.0001    Y=             -2.8475    Z=              0.0009  Tot=              2.8475
 Quadrupole moment (field-independent basis, Debye-Ang):
   XX=           -245.0676   YY=           -267.1912   ZZ=           -277.4305
   XY=              0.0025   XZ=              4.8928   YZ=             -0.0032

 Normal termination of Gaussian 09 at Sat Apr 11 14:23:44 2020.
