 Gaussian 09, Revision D.01,
 Gaussian 09:  EM64L-G09RevD.01 24-Apr-2013

 --------------------------------------------------------------
 #p bp86 opt IOp(1/19=11) gen int=(grid=ultrafine) freq=noraman
 --------------------------------------------------------------

 ---
 Rab
 ---
 Symbolic Z-matrix:
 Charge =  0 Multiplicity = 1

 SCF Done:  E(RB-P86) =  -113.304332592     A.U. after   11 cycles
 SCF Done:  E(RB-P86) =  -113.305170133     A.U. after    8 cycles
 SCF Done:  E(RB-P86) =  -113.305193077     A.U. after    7 cycles
 SCF Done:  E(RB-P86) =  -113.305193181     A.U. after    6 cycles
 Optimization completed.
    -- Stationary point found.
 Normal termination of Gaussian 09 at Sun Apr 12 10:35:26 2020.

 ----------------------------------------------------------------------
 #P Geom=AllCheck Guess=TCheck SCRF=Check Test GenChk RBP86/ChkBas Freq
 ----------------------------------------------------------------------

 Structure from the checkpoint file:  "/state/partition1/stuart_2020-04-12-1035_14436/Gau-25926.chk"
 ---
 Rab
 ---
 Charge =  0 Multiplicity = 1

                         Standard orientation:
 ---------------------------------------------------------------------
 Center     Atomic      Atomic             Coordinates (Angstroms)
 Number     Number       Type             X           Y           Z
 ---------------------------------------------------------------------
      1          6           0        0.000000    0.000000   -0.657069
      2          8           0        0.000000    0.000000    0.492802
 ---------------------------------------------------------------------

 SCF Done:  E(RB-P86) =  -113.305193181     A.U. after    1 cycles

 The electronic state is 1-SG.
 Alpha  occ. eigenvalues --  -18.89564 -10.02414  -1.05987  -0.50817  -0.41782
 Alpha  occ. eigenvalues --   -0.41782  -0.32133
 Alpha virt. eigenvalues --   -0.06506  -0.06506   0.23587   0.47742   0.47742
 Alpha virt. eigenvalues --    0.55041   0.67414   0.77999   0.85802   0.85802
 Alpha virt. eigenvalues --    1.41417   1.41417   1.44587   1.46004   1.46004

 Mulliken charges:
               1
     1  C    0.135604
     2  O   -0.135604
 Sum of Mulliken charges =   0.00000

 Dipole moment (field-independent basis, Debye):
    X=              0.0000    Y=              0.0000    Z=              0.1476  Tot=              0.1476
 Quadrupole moment (field-independent basis, Debye-Ang):
   XX=             -9.8964   YY=             -9.8964   ZZ=            -11.9034
   XY=              0.0000   XZ=              0.0000   YZ=              0.0000

  Exact polarizability:   8.099   0.000   8.099   0.000   0.000  12.942
 Approx polarizability:  13.270   0.000  13.270   0.000   0.000  29.474

                      1
                     SG
 Frequencies --   2116.9384
 Red. masses --     13.4388
 Frc consts  --     35.4834
 IR Inten    --     56.4030

 - Thermochemistry -
 -------------------
 Temperature   298.150 Kelvin.  Pressure   1.00000 Atm.
 Atom     1 has atomic number  6 and mass  12.00000

 Molecular mass:    27.99491 amu.
 Principal axes and moments of inertia in atomic units:
                           1         2         3
     Eigenvalues --     0.00000  32.37279  32.37279
           X            0.00000   0.00000   1.00000
           Y            0.00000   1.00000   0.00000
           Z            1.00000   0.00000   0.00000
 This molecule is a prolate symmetric top.
 Rotational symmetry number  1.
 Rotational temperature (Kelvin)      2.67551
 Rotational constant (GHZ):          55.748707
 Zero-point vibrational energy      12662.1 (Joules/Mol)
                                    3.02632 (Kcal/Mol)
 Vibrational temperatures:   3045.80
          (Kelvin)

 Zero-point correction=                           0.004823 (Hartree/Particle)
 Thermal correction to Energy=                    0.007184
 Thermal correction to Enthalpy=                  0.008128
 Thermal correction to Gibbs Free Energy=        -0.014335
 Sum of electronic and zero-point Energies=           -113.300370
 Sum of electronic and thermal Energies=              -113.298010
 Sum of electronic and thermal Enthalpies=            -113.297065
 Sum of electronic and thermal Free Energies=         -113.319529

                     E (Thermal)             CV                S
                      KCal/Mol        Cal/Mol-Kelvin    Cal/Mol-Kelvin
 Total                    4.508              4.976             47.278
 Electronic               0.000              0.000              0.000
 Translational            0.889              2.981             35.923
 Rotational               0.592              1.987             11.354
 Vibrational              3.027              0.008              0.001

 Optimization completed.
    -- Stationary point found.
 Normal termination of Gaussian 09 at Sun Apr 12 10:35:30 2020.
