 Gaussian 09, Revision D.01,
 Gaussian 09:  EM64L-G09RevD.01 24-Apr-2013

 --------------------------------------------------------------------
 # bp86 gen pseudo=read int=grid=ultrafine scrf=(pcm,solvent=benzene)
 --------------------------------------------------------------------

 -------------------------------
 Ru (PPh3)3 H4 from high temp MD
 -------------------------------
 Symbolic Z-matrix:
 Charge =  0 Multiplicity = 1

                         Standard orientation:
 ---------------------------------------------------------------------
 Center     Atomic      Atomic             Coordinates (Angstroms)
 Number     Number       Type             X           Y           Z
 ---------------------------------------------------------------------
      1          6           0        0.000000    0.000000   -0.657069
      2          8           0        0.000000    0.000000    0.492801
 ---------------------------------------------------------------------

 SCF Done:  E(RB-P86) =  -113.305476238     A.U. after    8 cycles

 The electronic state is 1-SG.
 Alpha  occ. eigenvalues --  -18.89476 -10.02356  -1.05889  -0.50760  -0.41678
 Alpha  occ. eigenvalues --   -0.41678  -0.32112
 Alpha virt. eigenvalues --   -0.06421  -0.06421   0.23621   0.47872   0.47872
 Alpha virt. eigenvalues --    0.55019   0.67495   0.77994   0.85885   0.85885
 Alpha virt. eigenvalues --    1.41518   1.41518   1.44687   1.46072   1.46072

 Mulliken charges:
               1
     1  C    0.137831
     2  O   -0.137831
 Sum of Mulliken charges =   0.00000

 Dipole moment (field-independent basis, Debye):
    X=              0.0000    Y=              0.0000    Z=              0.1556  Tot=              0.1556
 Quadrupole moment (field-independent basis, Debye-Ang):
   XX=             -9.8916   YY=             -9.8916   ZZ=            -11.9348
   XY=              0.0000   XZ=              0.0000   YZ=              0.0000

 Normal termination of Gaussian 09 at Sun Apr 12 10:35:46 2020.
