 Gaussian 09, Revision D.01,
 Gaussian 09:  EM64L-G09RevD.01 24-Apr-2013

 --------------------------------------------------------------
 # gen bp86 int=ultrafine pseudo=read empiricaldispersion=gd3bj
 --------------------------------------------------------------

 -------------------------------
 Ru (PPh3)3 H4 from high temp MD
 -------------------------------
 Symbolic Z-matrix:
 Charge =  0 Multiplicity = 1

                         Standard orientation:
 ---------------------------------------------------------------------
 Center     Atomic      Atomic             Coordinates (Angstroms)
 Number     Number       Type             X           Y           Z
 ---------------------------------------------------------------------
      1          6           0        0.000000    0.000000   -0.657069
      2          8           0        0.000000    0.000000    0.492801
 ---------------------------------------------------------------------

 SCF Done:  E(RB-P86) =  -113.305815827     A.U. after   10 cycles

 The electronic state is 1-SG.
 Alpha  occ. eigenvalues --  -18.89564 -10.02414  -1.05987  -0.50817  -0.41782
 Alpha  occ. eigenvalues --   -0.41782  -0.32133
 Alpha virt. eigenvalues --   -0.06506  -0.06506   0.23587   0.47742   0.47742
 Alpha virt. eigenvalues --    0.55041   0.67414   0.77999   0.85802   0.85802
 Alpha virt. eigenvalues --    1.41417   1.41417   1.44587   1.46004   1.46004

 Mulliken charges:
               1
     1  C    0.135603
     2  O   -0.135603
 Sum of Mulliken charges =   0.00000

 Dipole moment (field-independent basis, Debye):
    X=              0.0000    Y=              0.0000    Z=              0.1476  Tot=              0.1476
 Quadrupole moment (field-independent basis, Debye-Ang):
   XX=             -9.8964   YY=             -9.8964   ZZ=            -11.9034
   XY=              0.0000   XZ=              0.0000   YZ=              0.0000

 Normal termination of Gaussian 09 at Sun Apr 12 10:35:46 2020.
