 Gaussian 09, Revision D.01,
 Gaussian 09:  EM64L-G09RevD.01 24-Apr-2013

 ------------------------------------
 # gen bp86 int=ultrafine pseudo=read
 ------------------------------------

 -------------------------------
 Ru (PPh3)3 H4 from high temp MD
 -------------------------------
 Symbolic Z-matrix:
 Charge =  0 Multiplicity = 1

                         Standard orientation:
 ---------------------------------------------------------------------
 Center     Atomic      Atomic             Coordinates (Angstroms)
 Number     Number       Type             X           Y           Z
 ---------------------------------------------------------------------
      1          6           0        0.000000    0.000000   -0.657069
      2          8           0        0.000000    0.000000    0.492801
 ---------------------------------------------------------------------

 SCF Done:  E(RB-P86) =  -113.358843437     A.U. after   11 cycles

 The electronic state is 1-SG.
 Alpha  occ. eigenvalues --  -18.87699 -10.01927  -1.06863  -0.52201  -0.43123
 Alpha  occ. eigenvalues --   -0.43123  -0.33742
 Alpha virt. eigenvalues --   -0.08209  -0.08209   0.10254   0.16756   0.19766
 Alpha virt. eigenvalues --    0.19766   0.34211   0.44408   0.44408   0.49520
 Alpha virt. eigenvalues --    0.58817   0.58817   0.65797   0.79279   0.79279

 Mulliken charges:
               1
     1  C   -0.014816
     2  O    0.014816
 Sum of Mulliken charges =   0.00000

 Dipole moment (field-independent basis, Debye):
    X=              0.0000    Y=              0.0000    Z=              0.1518  Tot=              0.1518
 Quadrupole moment (field-independent basis, Debye-Ang):
   XX=            -10.3177   YY=            -10.3177   ZZ=            -12.2834
   XY=              0.0000   XZ=              0.0000   YZ=              0.0000

 Normal termination of Gaussian 09 at Sun Apr 12 10:36:01 2020.
