 Gaussian 09, Revision D.01,
 Gaussian 09:  EM64L-G09RevD.01 24-Apr-2013

 --------------------------------------------------------------
 # gen bp86 int=ultrafine pseudo=read empiricaldispersion=gd3bj
 --------------------------------------------------------------

 -------------------------------
 Ru (PPh3)3 H4 from high temp MD
 -------------------------------
 Symbolic Z-matrix:
 Charge =  0 Multiplicity = 1

                         Standard orientation:
 ---------------------------------------------------------------------
 Center     Atomic      Atomic             Coordinates (Angstroms)
 Number     Number       Type             X           Y           Z
 ---------------------------------------------------------------------
      1         44           0        0.011201   -0.506900   -0.301770
      2         30           0        0.124051    2.175590   -0.044060
      3         15           0        2.340871   -0.218810   -0.067030
      4         15           0       -2.330609   -0.191980   -0.037090
      5          8           0        0.074641   -3.549710    0.025960
      6          8           0       -0.024429    0.523580   -3.144630
      7          6           0        0.054761   -2.370330    0.085520
      8          6           0       -0.018109    0.265500   -1.986690
      9          6           0        2.016691    2.543770   -0.472140
     10          6           0        2.950061    1.476360   -0.555610
     11          6           0        4.287881    1.689660   -0.944370
     12          1           0        4.987611    0.849450   -1.009530
     13          6           0        4.721710    2.985470   -1.267170
     14          1           0        5.756590    3.150590   -1.585740
     15          6           0        3.824520    4.061350   -1.183180
     16          1           0        4.158370    5.074310   -1.435780
     17          6           0        2.494690    3.838890   -0.783050
     18          1           0        1.814430    4.697940   -0.729890
     19          6           0       -1.678149    2.483980    0.691670
     20          6           0       -1.997340    3.728130    1.290230
     21          1           0       -1.246670    4.528300    1.306600
     22          6           0       -3.250540    3.977380    1.874350
     23          1           0       -3.462920    4.954220    2.323780
     24          6           0       -4.225400    2.967430    1.893520
     25          1           0       -5.201480    3.146540    2.357230
     26          6           0       -3.940529    1.717180    1.324400
     27          1           0       -4.692469    0.921080    1.362990
     28          6           0       -2.686949    1.481560    0.717520
     29          6           0        2.771621   -0.338740    1.747780
     30          6           0        3.259961    0.769060    2.470880
     31          1           0        3.432991    1.720220    1.958800
     32          6           0        3.525961    0.654360    3.845980
     33          1           0        3.903231    1.522380    4.396990
     34          6           0        3.313431   -0.563890    4.509080
     35          1           0        3.522331   -0.650540    5.580540
     36          6           0        2.831201   -1.673280    3.792950
     37          1           0        2.664741   -2.628170    4.302670
     38          6           0        2.553341   -1.561720    2.422960
     39          1           0        2.169481   -2.427590    1.874260
     40          6           0        3.499011   -1.423890   -0.882240
     41          6           0        4.744421   -1.775760   -0.320210
     42          1           0        5.046081   -1.359360    0.646530
     43          6           0        5.592531   -2.671020   -0.991990
     44          1           0        6.555901   -2.942720   -0.547470
     45          6           0        5.205171   -3.219200   -2.225670
     46          1           0        5.866611   -3.920300   -2.745410
     47          6           0        3.964291   -2.875030   -2.786640
     48          1           0        3.653341   -3.307840   -3.743110
     49          6           0        3.110701   -1.984760   -2.117250
     50          1           0        2.134201   -1.729710   -2.542350
     51          6           0       -3.350259   -0.279070   -1.592970
     52          6           0       -4.289229    0.707840   -1.952190
     53          1           0       -4.451179    1.572170   -1.300930
     54          6           0       -5.012829    0.588230   -3.151120
     55          1           0       -5.735519    1.363950   -3.425810
     56          6           0       -4.809219   -0.515450   -3.993410
     57          1           0       -5.373149   -0.604460   -4.927860
     58          6           0       -3.871689   -1.501100   -3.640150
     59          1           0       -3.700049   -2.359230   -4.298320
     60          6           0       -3.139089   -1.381070   -2.450750
     61          1           0       -2.389589   -2.136040   -2.188830
     62          6           0       -3.218029   -1.362910    1.116070
     63          6           0       -4.508479   -1.864520    0.853170
     64          1           0       -5.023369   -1.590380   -0.073060
     65          6           0       -5.132909   -2.724640    1.773030
     66          1           0       -6.133059   -3.114720    1.556010
     67          6           0       -4.478589   -3.084280    2.961110
     68          1           0       -4.966149   -3.756490    3.674930
     69          6           0       -3.191819   -2.585990    3.228460
     70          1           0       -2.672349   -2.868690    4.150110
     71          6           0       -2.562459   -1.735000    2.308830
     72          1           0       -1.549919   -1.365130    2.509060
 ---------------------------------------------------------------------

 SCF Done:  E(RB-P86) =  -1951.10383148     A.U. after   20 cycles

 The electronic state is 1-A.
 Alpha  occ. eigenvalues --  -18.83043 -18.81729  -9.98639  -9.98329  -9.93431
 Alpha  occ. eigenvalues --   -9.93103  -9.92899  -9.92877  -9.92579  -9.92564
 Alpha  occ. eigenvalues --   -9.92550  -9.92528  -9.92461  -9.92419  -9.92392
 Alpha  occ. eigenvalues --   -9.92353  -9.92320  -9.92249  -9.92204  -9.92198
 Alpha  occ. eigenvalues --   -9.92182  -9.92178  -9.92132  -9.92125  -9.92122
 Alpha  occ. eigenvalues --   -9.92093  -9.92066  -9.92052  -9.91982  -9.91918
 Alpha  occ. eigenvalues --   -9.91903  -9.91780  -9.91684  -9.91660  -9.91480
 Alpha  occ. eigenvalues --   -9.91431  -9.91356  -9.91179  -9.90500  -9.90217
 Alpha  occ. eigenvalues --   -4.81913  -3.05487  -3.05196  -3.04765  -2.85756
 Alpha  occ. eigenvalues --   -1.75092  -1.74091  -1.71941  -0.98810  -0.97537
 Alpha  occ. eigenvalues --   -0.78533  -0.78283  -0.77883  -0.77593  -0.76899
 Alpha  occ. eigenvalues --   -0.76722  -0.70528  -0.70342  -0.68097  -0.67945
 Alpha  occ. eigenvalues --   -0.67823  -0.67676  -0.67669  -0.67376  -0.66893
 Alpha  occ. eigenvalues --   -0.66816  -0.66528  -0.66256  -0.59724  -0.59432
 Alpha  occ. eigenvalues --   -0.55168  -0.54991  -0.54929  -0.54706  -0.54252
 Alpha  occ. eigenvalues --   -0.54094  -0.53700  -0.53602  -0.53057  -0.52760
 Alpha  occ. eigenvalues --   -0.50711  -0.50340  -0.48362  -0.47007  -0.46782
 Alpha  occ. eigenvalues --   -0.46520  -0.46075  -0.45899  -0.44565  -0.44011
 Alpha  occ. eigenvalues --   -0.41143  -0.41132  -0.40981  -0.40867  -0.40730
 Alpha  occ. eigenvalues --   -0.40559  -0.40238  -0.40222  -0.39993  -0.39800
 Alpha  occ. eigenvalues --   -0.39655  -0.39518  -0.39220  -0.39039  -0.38683
 Alpha  occ. eigenvalues --   -0.38459  -0.38056  -0.37901  -0.37853  -0.37706
 Alpha  occ. eigenvalues --   -0.37582  -0.37504  -0.37274  -0.36861  -0.36748
 Alpha  occ. eigenvalues --   -0.36571  -0.36200  -0.35837  -0.35657  -0.35391
 Alpha  occ. eigenvalues --   -0.35172  -0.34409  -0.34285  -0.33311  -0.33245
 Alpha  occ. eigenvalues --   -0.33042  -0.32732  -0.32381  -0.32290  -0.31942
 Alpha  occ. eigenvalues --   -0.31863  -0.30778  -0.30577  -0.30530  -0.30366
 Alpha  occ. eigenvalues --   -0.29951  -0.29327  -0.29015  -0.28472  -0.28338
 Alpha  occ. eigenvalues --   -0.26749  -0.26043  -0.23969  -0.23646  -0.23471
 Alpha  occ. eigenvalues --   -0.23177  -0.23166  -0.23070  -0.22863  -0.22648
 Alpha  occ. eigenvalues --   -0.22354  -0.22223  -0.21992  -0.21700  -0.21447
 Alpha  occ. eigenvalues --   -0.20874  -0.18563  -0.18041  -0.16850
 Alpha virt. eigenvalues --   -0.09896  -0.06353  -0.05790  -0.05460  -0.05374
 Alpha virt. eigenvalues --   -0.05207  -0.05010  -0.04546  -0.04347  -0.04061
 Alpha virt. eigenvalues --   -0.03739  -0.03307  -0.03009  -0.02340  -0.01270

 Mulliken charges:
               1
     1  Ru  -0.449214
     2  Zn   0.016277
     3  P    0.143710
     4  P    0.116309
     5  O   -0.295780
     6  O   -0.304342
     7  C    0.271585
     8  C    0.281669
     9  C    0.068028
    10  C   -0.039041
    11  C   -0.105841
    12  H    0.102735
    13  C   -0.109150
    14  H    0.100488
    15  C   -0.092590
    16  H    0.099403
    17  C   -0.148861
    18  H    0.099612
    19  C    0.065085
    20  C   -0.145502
    21  H    0.102275
    22  C   -0.090556
    23  H    0.100274
    24  C   -0.112361
    25  H    0.101660
    26  C   -0.102362
    27  H    0.107838
    28  C   -0.044582
    29  C    0.011708
    30  C   -0.115551
    31  H    0.125950
    32  C   -0.101979
    33  H    0.107243
    34  C   -0.096170
    35  H    0.105099
    36  C   -0.104680
    37  H    0.108930
    38  C   -0.111376
    39  H    0.136546
    40  C    0.008759
    41  C   -0.122244
    42  H    0.117472
    43  C   -0.103616
    44  H    0.105244
    45  C   -0.093452
    46  H    0.105362
    47  C   -0.104497
    48  H    0.111448
    49  C   -0.099032
    50  H    0.151307
    51  C    0.004859
    52  C   -0.115917
    53  H    0.113081
    54  C   -0.100734
    55  H    0.104710
    56  C   -0.094560
    57  H    0.104026
    58  C   -0.103003
    59  H    0.108841
    60  C   -0.102251
    61  H    0.141340
    62  C    0.024307
    63  C   -0.123457
    64  H    0.116085
    65  C   -0.102131
    66  H    0.104271
    67  C   -0.095632
    68  H    0.103543
    69  C   -0.102136
    70  H    0.106793
    71  C   -0.104240
    72  H    0.132969
 Sum of Mulliken charges =   0.00000

 Dipole moment (field-independent basis, Debye):
    X=              0.0143    Y=              0.2173    Z=              2.6026  Tot=              2.6117
 Quadrupole moment (field-independent basis, Debye-Ang):
   XX=           -244.0885   YY=           -274.7804   ZZ=           -271.6491
   XY=             -1.7639   XZ=              4.0318   YZ=              3.4132

 Normal termination of Gaussian 09 at Sat Apr 11 14:24:41 2020.
