 Gaussian 09, Revision D.01,
 Gaussian 09:  EM64L-G09RevD.01 24-Apr-2013

 ---------------------------------------------------------------------
 #p bp86 gen pseudo=read int=grid=ultrafine scrf=(pcm,solvent=benzene)
 ---------------------------------------------------------------------

 -------------------------------
 Ru (PPh3)3 H4 from high temp MD
 -------------------------------
 Symbolic Z-matrix:
 Charge =  0 Multiplicity = 1

                         Standard orientation:
 ---------------------------------------------------------------------
 Center     Atomic      Atomic             Coordinates (Angstroms)
 Number     Number       Type             X           Y           Z
 ---------------------------------------------------------------------
      1         44           0        0.011201   -0.506900   -0.301770
      2         30           0        0.124051    2.175590   -0.044060
      3         15           0        2.340871   -0.218810   -0.067030
      4         15           0       -2.330609   -0.191980   -0.037090
      5          8           0        0.074641   -3.549710    0.025960
      6          8           0       -0.024429    0.523580   -3.144630
      7          6           0        0.054761   -2.370330    0.085520
      8          6           0       -0.018109    0.265500   -1.986690
      9          6           0        2.016691    2.543770   -0.472140
     10          6           0        2.950061    1.476360   -0.555610
     11          6           0        4.287881    1.689660   -0.944370
     12          1           0        4.987611    0.849450   -1.009530
     13          6           0        4.721710    2.985470   -1.267170
     14          1           0        5.756590    3.150590   -1.585740
     15          6           0        3.824520    4.061350   -1.183180
     16          1           0        4.158370    5.074310   -1.435780
     17          6           0        2.494690    3.838890   -0.783050
     18          1           0        1.814430    4.697940   -0.729890
     19          6           0       -1.678149    2.483980    0.691670
     20          6           0       -1.997340    3.728130    1.290230
     21          1           0       -1.246670    4.528300    1.306600
     22          6           0       -3.250540    3.977380    1.874350
     23          1           0       -3.462920    4.954220    2.323780
     24          6           0       -4.225400    2.967430    1.893520
     25          1           0       -5.201480    3.146540    2.357230
     26          6           0       -3.940529    1.717180    1.324400
     27          1           0       -4.692469    0.921080    1.362990
     28          6           0       -2.686949    1.481560    0.717520
     29          6           0        2.771621   -0.338740    1.747780
     30          6           0        3.259961    0.769060    2.470880
     31          1           0        3.432991    1.720220    1.958800
     32          6           0        3.525961    0.654360    3.845980
     33          1           0        3.903231    1.522380    4.396990
     34          6           0        3.313431   -0.563890    4.509080
     35          1           0        3.522331   -0.650540    5.580540
     36          6           0        2.831201   -1.673280    3.792950
     37          1           0        2.664741   -2.628170    4.302670
     38          6           0        2.553341   -1.561720    2.422960
     39          1           0        2.169481   -2.427590    1.874260
     40          6           0        3.499011   -1.423890   -0.882240
     41          6           0        4.744421   -1.775760   -0.320210
     42          1           0        5.046081   -1.359360    0.646530
     43          6           0        5.592531   -2.671020   -0.991990
     44          1           0        6.555901   -2.942720   -0.547470
     45          6           0        5.205171   -3.219200   -2.225670
     46          1           0        5.866611   -3.920300   -2.745410
     47          6           0        3.964291   -2.875030   -2.786640
     48          1           0        3.653341   -3.307840   -3.743110
     49          6           0        3.110701   -1.984760   -2.117250
     50          1           0        2.134201   -1.729710   -2.542350
     51          6           0       -3.350259   -0.279070   -1.592970
     52          6           0       -4.289229    0.707840   -1.952190
     53          1           0       -4.451179    1.572170   -1.300930
     54          6           0       -5.012829    0.588230   -3.151120
     55          1           0       -5.735519    1.363950   -3.425810
     56          6           0       -4.809219   -0.515450   -3.993410
     57          1           0       -5.373149   -0.604460   -4.927860
     58          6           0       -3.871689   -1.501100   -3.640150
     59          1           0       -3.700049   -2.359230   -4.298320
     60          6           0       -3.139089   -1.381070   -2.450750
     61          1           0       -2.389589   -2.136040   -2.188830
     62          6           0       -3.218029   -1.362910    1.116070
     63          6           0       -4.508479   -1.864520    0.853170
     64          1           0       -5.023369   -1.590380   -0.073060
     65          6           0       -5.132909   -2.724640    1.773030
     66          1           0       -6.133059   -3.114720    1.556010
     67          6           0       -4.478589   -3.084280    2.961110
     68          1           0       -4.966149   -3.756490    3.674930
     69          6           0       -3.191819   -2.585990    3.228460
     70          1           0       -2.672349   -2.868690    4.150110
     71          6           0       -2.562459   -1.735000    2.308830
     72          1           0       -1.549919   -1.365130    2.509060
 ---------------------------------------------------------------------

 SCF Done:  E(RB-P86) =  -1950.87072409     A.U. after   20 cycles

 The electronic state is 1-A.
 Alpha  occ. eigenvalues --  -18.83432 -18.82227  -9.99014  -9.98769  -9.93588
 Alpha  occ. eigenvalues --   -9.93236  -9.93062  -9.93058  -9.92766  -9.92680
 Alpha  occ. eigenvalues --   -9.92613  -9.92584  -9.92540  -9.92452  -9.92434
 Alpha  occ. eigenvalues --   -9.92388  -9.92358  -9.92350  -9.92322  -9.92320
 Alpha  occ. eigenvalues --   -9.92318  -9.92266  -9.92218  -9.92217  -9.92178
 Alpha  occ. eigenvalues --   -9.92161  -9.92159  -9.92116  -9.92062  -9.92055
 Alpha  occ. eigenvalues --   -9.92007  -9.91885  -9.91829  -9.91801  -9.91611
 Alpha  occ. eigenvalues --   -9.91570  -9.91500  -9.91337  -9.90637  -9.90355
 Alpha  occ. eigenvalues --   -4.81812  -3.05355  -3.05110  -3.04685  -2.86087
 Alpha  occ. eigenvalues --   -1.75402  -1.74430  -1.72267  -0.99257  -0.98095
 Alpha  occ. eigenvalues --   -0.78648  -0.78428  -0.77976  -0.77729  -0.77066
 Alpha  occ. eigenvalues --   -0.76902  -0.70646  -0.70483  -0.68186  -0.68015
 Alpha  occ. eigenvalues --   -0.67928  -0.67795  -0.67749  -0.67487  -0.67038
 Alpha  occ. eigenvalues --   -0.66963  -0.66675  -0.66414  -0.59854  -0.59569
 Alpha  occ. eigenvalues --   -0.55238  -0.55045  -0.55011  -0.54813  -0.54317
 Alpha  occ. eigenvalues --   -0.54192  -0.53811  -0.53713  -0.53162  -0.52876
 Alpha  occ. eigenvalues --   -0.50831  -0.50442  -0.48791  -0.47373  -0.46873
 Alpha  occ. eigenvalues --   -0.46660  -0.46176  -0.45975  -0.44637  -0.44090
 Alpha  occ. eigenvalues --   -0.41187  -0.41163  -0.41037  -0.40937  -0.40822
 Alpha  occ. eigenvalues --   -0.40642  -0.40315  -0.40290  -0.40045  -0.39874
 Alpha  occ. eigenvalues --   -0.39773  -0.39601  -0.39121  -0.39029  -0.38764
 Alpha  occ. eigenvalues --   -0.38555  -0.38172  -0.38006  -0.37894  -0.37781
 Alpha  occ. eigenvalues --   -0.37660  -0.37598  -0.37455  -0.37194  -0.36951
 Alpha  occ. eigenvalues --   -0.36813  -0.36366  -0.36164  -0.35956  -0.35779
 Alpha  occ. eigenvalues --   -0.35365  -0.34712  -0.34399  -0.33451  -0.33388
 Alpha  occ. eigenvalues --   -0.33172  -0.32908  -0.32506  -0.32460  -0.32069
 Alpha  occ. eigenvalues --   -0.32028  -0.30847  -0.30633  -0.30577  -0.30446
 Alpha  occ. eigenvalues --   -0.30073  -0.29423  -0.29137  -0.28595  -0.28469
 Alpha  occ. eigenvalues --   -0.26791  -0.26217  -0.24100  -0.23823  -0.23611
 Alpha  occ. eigenvalues --   -0.23342  -0.23314  -0.23249  -0.23011  -0.22820
 Alpha  occ. eigenvalues --   -0.22561  -0.22423  -0.22219  -0.21961  -0.21598
 Alpha  occ. eigenvalues --   -0.21053  -0.18863  -0.18343  -0.17098
 Alpha virt. eigenvalues --   -0.10085  -0.06505  -0.05930  -0.05634  -0.05528
 Alpha virt. eigenvalues --   -0.05347  -0.05200  -0.04702  -0.04499  -0.04215
 Alpha virt. eigenvalues --   -0.03873  -0.03478  -0.03204  -0.02698  -0.01574

 Mulliken charges:
               1
     1  Ru  -0.454466
     2  Zn   0.031552
     3  P    0.146581
     4  P    0.118401
     5  O   -0.308333
     6  O   -0.319685
     7  C    0.272520
     8  C    0.282099
     9  C    0.064267
    10  C   -0.039472
    11  C   -0.109761
    12  H    0.106396
    13  C   -0.115570
    14  H    0.108429
    15  C   -0.098960
    16  H    0.106939
    17  C   -0.156287
    18  H    0.105258
    19  C    0.058827
    20  C   -0.152640
    21  H    0.108152
    22  C   -0.096758
    23  H    0.108299
    24  C   -0.118204
    25  H    0.110068
    26  C   -0.105307
    27  H    0.111739
    28  C   -0.045779
    29  C    0.010627
    30  C   -0.119793
    31  H    0.126812
    32  C   -0.107528
    33  H    0.115745
    34  C   -0.101581
    35  H    0.114538
    36  C   -0.109571
    37  H    0.117766
    38  C   -0.114148
    39  H    0.137918
    40  C    0.008020
    41  C   -0.124181
    42  H    0.121509
    43  C   -0.109108
    44  H    0.114085
    45  C   -0.099044
    46  H    0.114236
    47  C   -0.110297
    48  H    0.119069
    49  C   -0.103849
    50  H    0.151617
    51  C    0.004401
    52  C   -0.119071
    53  H    0.115297
    54  C   -0.106622
    55  H    0.113002
    56  C   -0.100371
    57  H    0.112726
    58  C   -0.109048
    59  H    0.116873
    60  C   -0.106917
    61  H    0.143942
    62  C    0.023057
    63  C   -0.125444
    64  H    0.119100
    65  C   -0.107979
    66  H    0.112908
    67  C   -0.101505
    68  H    0.112434
    69  C   -0.108375
    70  H    0.115066
    71  C   -0.109717
    72  H    0.135095
 Sum of Mulliken charges =   0.00000

 Dipole moment (field-independent basis, Debye):
    X=              0.0334    Y=              0.5195    Z=              3.1375  Tot=              3.1804
 Quadrupole moment (field-independent basis, Debye-Ang):
   XX=           -239.2978   YY=           -273.4893   ZZ=           -270.1489
   XY=             -2.0321   XZ=              4.5104   YZ=              3.4902

 Normal termination of Gaussian 09 at Sat Apr 11 14:27:45 2020.
