 Gaussian 09, Revision D.01,
 Gaussian 09:  EM64L-G09RevD.01 24-Apr-2013

 ------------------------------------
 # gen bp86 int=ultrafine pseudo=read
 ------------------------------------

 -------------------------------
 Ru (PPh3)3 H4 from high temp MD
 -------------------------------
 Symbolic Z-matrix:
 Charge =  0 Multiplicity = 1

                         Standard orientation:
 ---------------------------------------------------------------------
 Center     Atomic      Atomic             Coordinates (Angstroms)
 Number     Number       Type             X           Y           Z
 ---------------------------------------------------------------------
      1         44           0        0.011201   -0.506900   -0.301770
      2         30           0        0.124051    2.175590   -0.044060
      3         15           0        2.340871   -0.218810   -0.067030
      4         15           0       -2.330609   -0.191980   -0.037090
      5          8           0        0.074641   -3.549710    0.025960
      6          8           0       -0.024429    0.523580   -3.144630
      7          6           0        0.054761   -2.370330    0.085520
      8          6           0       -0.018109    0.265500   -1.986690
      9          6           0        2.016691    2.543770   -0.472140
     10          6           0        2.950061    1.476360   -0.555610
     11          6           0        4.287881    1.689660   -0.944370
     12          1           0        4.987611    0.849450   -1.009530
     13          6           0        4.721710    2.985470   -1.267170
     14          1           0        5.756590    3.150590   -1.585740
     15          6           0        3.824520    4.061350   -1.183180
     16          1           0        4.158370    5.074310   -1.435780
     17          6           0        2.494690    3.838890   -0.783050
     18          1           0        1.814430    4.697940   -0.729890
     19          6           0       -1.678149    2.483980    0.691670
     20          6           0       -1.997340    3.728130    1.290230
     21          1           0       -1.246670    4.528300    1.306600
     22          6           0       -3.250540    3.977380    1.874350
     23          1           0       -3.462920    4.954220    2.323780
     24          6           0       -4.225400    2.967430    1.893520
     25          1           0       -5.201480    3.146540    2.357230
     26          6           0       -3.940529    1.717180    1.324400
     27          1           0       -4.692469    0.921080    1.362990
     28          6           0       -2.686949    1.481560    0.717520
     29          6           0        2.771621   -0.338740    1.747780
     30          6           0        3.259961    0.769060    2.470880
     31          1           0        3.432991    1.720220    1.958800
     32          6           0        3.525961    0.654360    3.845980
     33          1           0        3.903231    1.522380    4.396990
     34          6           0        3.313431   -0.563890    4.509080
     35          1           0        3.522331   -0.650540    5.580540
     36          6           0        2.831201   -1.673280    3.792950
     37          1           0        2.664741   -2.628170    4.302670
     38          6           0        2.553341   -1.561720    2.422960
     39          1           0        2.169481   -2.427590    1.874260
     40          6           0        3.499011   -1.423890   -0.882240
     41          6           0        4.744421   -1.775760   -0.320210
     42          1           0        5.046081   -1.359360    0.646530
     43          6           0        5.592531   -2.671020   -0.991990
     44          1           0        6.555901   -2.942720   -0.547470
     45          6           0        5.205171   -3.219200   -2.225670
     46          1           0        5.866611   -3.920300   -2.745410
     47          6           0        3.964291   -2.875030   -2.786640
     48          1           0        3.653341   -3.307840   -3.743110
     49          6           0        3.110701   -1.984760   -2.117250
     50          1           0        2.134201   -1.729710   -2.542350
     51          6           0       -3.350259   -0.279070   -1.592970
     52          6           0       -4.289229    0.707840   -1.952190
     53          1           0       -4.451179    1.572170   -1.300930
     54          6           0       -5.012829    0.588230   -3.151120
     55          1           0       -5.735519    1.363950   -3.425810
     56          6           0       -4.809219   -0.515450   -3.993410
     57          1           0       -5.373149   -0.604460   -4.927860
     58          6           0       -3.871689   -1.501100   -3.640150
     59          1           0       -3.700049   -2.359230   -4.298320
     60          6           0       -3.139089   -1.381070   -2.450750
     61          1           0       -2.389589   -2.136040   -2.188830
     62          6           0       -3.218029   -1.362910    1.116070
     63          6           0       -4.508479   -1.864520    0.853170
     64          1           0       -5.023369   -1.590380   -0.073060
     65          6           0       -5.132909   -2.724640    1.773030
     66          1           0       -6.133059   -3.114720    1.556010
     67          6           0       -4.478589   -3.084280    2.961110
     68          1           0       -4.966149   -3.756490    3.674930
     69          6           0       -3.191819   -2.585990    3.228460
     70          1           0       -2.672349   -2.868690    4.150110
     71          6           0       -2.562459   -1.735000    2.308830
     72          1           0       -1.549919   -1.365130    2.509060
 ---------------------------------------------------------------------

 SCF Done:  E(RB-P86) =  -4173.54184962     A.U. after   20 cycles

 The electronic state is 1-A.
 Alpha  occ. eigenvalues -- -345.80070 -76.38513 -76.38355 -41.66262 -36.72975
 Alpha  occ. eigenvalues --  -36.72828 -36.72680 -18.80554 -18.79226  -9.97675
 Alpha  occ. eigenvalues --   -9.97410  -9.92752  -9.92427  -9.92254  -9.92249
 Alpha  occ. eigenvalues --   -9.91877  -9.91705  -9.91672  -9.91608  -9.91602
 Alpha  occ. eigenvalues --   -9.91502  -9.91499  -9.91475  -9.91439  -9.91388
 Alpha  occ. eigenvalues --   -9.91386  -9.91374  -9.91351  -9.91293  -9.91278
 Alpha  occ. eigenvalues --   -9.91260  -9.91217  -9.91217  -9.91191  -9.91183
 Alpha  occ. eigenvalues --   -9.91114  -9.91063  -9.91002  -9.90820  -9.90768
 Alpha  occ. eigenvalues --   -9.90751  -9.90548  -9.90505  -9.90442  -9.90278
 Alpha  occ. eigenvalues --   -9.89845  -9.89546  -6.34101  -6.33948  -4.60668
 Alpha  occ. eigenvalues --   -4.55752  -4.55706  -4.55592  -4.55559  -4.55423
 Alpha  occ. eigenvalues --   -4.55268  -3.04259  -3.03973  -3.03553  -2.86625
 Alpha  occ. eigenvalues --   -1.76178  -1.75236  -1.73337  -0.99172  -0.97899
 Alpha  occ. eigenvalues --   -0.79120  -0.78890  -0.78517  -0.78263  -0.77495
 Alpha  occ. eigenvalues --   -0.77321  -0.70919  -0.70753  -0.68683  -0.68524
 Alpha  occ. eigenvalues --   -0.68418  -0.68296  -0.68250  -0.67976  -0.67453
 Alpha  occ. eigenvalues --   -0.67367  -0.67081  -0.66819  -0.59990  -0.59712
 Alpha  occ. eigenvalues --   -0.55769  -0.55590  -0.55540  -0.55346  -0.54854
 Alpha  occ. eigenvalues --   -0.54701  -0.54295  -0.54217  -0.53652  -0.53356
 Alpha  occ. eigenvalues --   -0.51242  -0.50858  -0.49009  -0.47684  -0.47463
 Alpha  occ. eigenvalues --   -0.47214  -0.46732  -0.46544  -0.45159  -0.44582
 Alpha  occ. eigenvalues --   -0.41972  -0.41861  -0.41735  -0.41576  -0.41487
 Alpha  occ. eigenvalues --   -0.41344  -0.41120  -0.41026  -0.40750  -0.40653
 Alpha  occ. eigenvalues --   -0.40514  -0.40364  -0.40325  -0.39993  -0.39329
 Alpha  occ. eigenvalues --   -0.39252  -0.38797  -0.38670  -0.38577  -0.38400
 Alpha  occ. eigenvalues --   -0.38261  -0.38203  -0.37989  -0.37608  -0.37526
 Alpha  occ. eigenvalues --   -0.37305  -0.36893  -0.36610  -0.36423  -0.36168
 Alpha  occ. eigenvalues --   -0.35854  -0.35181  -0.34966  -0.34141  -0.34088
 Alpha  occ. eigenvalues --   -0.33913  -0.33656  -0.33181  -0.33122  -0.32739
 Alpha  occ. eigenvalues --   -0.32673  -0.31459  -0.31276  -0.31224  -0.31088
 Alpha  occ. eigenvalues --   -0.30688  -0.30057  -0.29764  -0.29166  -0.29030
 Alpha  occ. eigenvalues --   -0.27203  -0.26755  -0.24897  -0.24593  -0.24446
 Alpha  occ. eigenvalues --   -0.24152  -0.24111  -0.24042  -0.23784  -0.23619
 Alpha  occ. eigenvalues --   -0.23264  -0.23140  -0.22894  -0.22546  -0.22275
 Alpha  occ. eigenvalues --   -0.21718  -0.19508  -0.19001  -0.17699
 Alpha virt. eigenvalues --   -0.10816  -0.07530  -0.07048  -0.06725  -0.06645
 Alpha virt. eigenvalues --   -0.06501  -0.06269  -0.05887  -0.05560  -0.05352
 Alpha virt. eigenvalues --   -0.04957  -0.04527  -0.04223  -0.03374  -0.02095

 Mulliken charges:
               1
     1  Ru   0.002769
     2  Zn  -0.314544
     3  P    0.429785
     4  P    0.484654
     5  O   -0.153384
     6  O   -0.184417
     7  C   -0.148495
     8  C   -0.055897
     9  C    0.040650
    10  C   -0.051600
    11  C   -0.161342
    12  H    0.154112
    13  C   -0.111545
    14  H    0.108141
    15  C   -0.126531
    16  H    0.107418
    17  C   -0.073088
    18  H    0.122658
    19  C    0.053857
    20  C   -0.072290
    21  H    0.125500
    22  C   -0.137360
    23  H    0.107909
    24  C   -0.081479
    25  H    0.110208
    26  C   -0.222903
    27  H    0.150515
    28  C   -0.024332
    29  C    0.029756
    30  C   -0.141077
    31  H    0.169605
    32  C   -0.135945
    33  H    0.114100
    34  C   -0.095854
    35  H    0.114897
    36  C   -0.114452
    37  H    0.116573
    38  C   -0.211534
    39  H    0.161069
    40  C   -0.023331
    41  C   -0.192038
    42  H    0.155786
    43  C   -0.112466
    44  H    0.114272
    45  C   -0.091669
    46  H    0.114826
    47  C   -0.128972
    48  H    0.114953
    49  C   -0.140788
    50  H    0.164009
    51  C   -0.049455
    52  C   -0.122401
    53  H    0.165223
    54  C   -0.143988
    55  H    0.112245
    56  C   -0.087088
    57  H    0.113618
    58  C   -0.114428
    59  H    0.113578
    60  C   -0.138009
    61  H    0.146487
    62  C   -0.039816
    63  C   -0.156166
    64  H    0.157625
    65  C   -0.125761
    66  H    0.113186
    67  C   -0.092718
    68  H    0.113183
    69  C   -0.131322
    70  H    0.110713
    71  C   -0.160049
    72  H    0.154650
 Sum of Mulliken charges =   0.00000

 Dipole moment (field-independent basis, Debye):
    X=             -0.0273    Y=              0.2243    Z=              2.4129  Tot=              2.4234
 Quadrupole moment (field-independent basis, Debye-Ang):
   XX=           -255.7239   YY=           -282.1580   ZZ=           -279.1699
   XY=             -1.8770   XZ=              4.2243   YZ=              3.4022

 Normal termination of Gaussian 09 at Sat Apr 11 15:24:23 2020.
