 Gaussian 09, Revision D.01,
 Gaussian 09:  EM64L-G09RevD.01 24-Apr-2013

 ---------------------------------------------------------------------
 #p bp86 gen pseudo=read int=grid=ultrafine scrf=(pcm,solvent=benzene)
 ---------------------------------------------------------------------

 -------------------------------
 Ru (PPh3)3 H4 from high temp MD
 -------------------------------
 Symbolic Z-matrix:
 Charge =  0 Multiplicity = 1

                         Standard orientation:
 ---------------------------------------------------------------------
 Center     Atomic      Atomic             Coordinates (Angstroms)
 Number     Number       Type             X           Y           Z
 ---------------------------------------------------------------------
      1         44           0       -0.000040   -0.563420    0.000410
      2         30           0        0.000070    2.161890   -0.000380
      3         15           0        2.375000   -0.185610   -0.052260
      4         15           0       -2.375080   -0.185540    0.052290
      5          8           0       -0.000250   -3.664510    0.002580
      6          8           0        0.059920    0.355070    2.960620
      7          8           0       -0.059830    0.352000   -2.960750
      8          6           0       -0.000140   -2.490330    0.001660
      9          6           0        0.043930   -0.005550    1.841220
     10          6           0       -0.043910   -0.007630   -1.841050
     11          6           0        1.870390    2.580830   -0.507360
     12          6           0        2.835640    1.542360   -0.615050
     13          6           0        4.142660    1.787220   -1.091010
     14          1           0        4.864520    0.968870   -1.183350
     15          6           0        4.519550    3.085630   -1.465280
     16          1           0        5.530080    3.271780   -1.844360
     17          6           0        3.594760    4.135990   -1.355680
     18          1           0        3.882391    5.152240   -1.648640
     19          6           0        2.297200    3.879080   -0.882110
     20          1           0        1.591491    4.716200   -0.816790
     21          6           0       -1.870490    2.581310    0.505340
     22          6           0       -2.297430    3.879860    0.878910
     23          1           0       -1.591579    4.716860    0.813530
     24          6           0       -3.595300    4.137250    1.351330
     25          1           0       -3.883039    5.153730    1.643390
     26          6           0       -4.520330    3.087090    1.460910
     27          1           0       -5.531130    3.273640    1.839050
     28          6           0       -4.143290    1.788370    1.087870
     29          1           0       -4.865310    0.970150    1.180220
     30          6           0       -2.835910    1.543020    0.613120
     31          6           0        3.191190   -0.364940    1.614720
     32          6           0        3.876880    0.698820    2.232200
     33          1           0        3.961780    1.662890    1.722520
     34          6           0        4.449740    0.523490    3.504120
     35          1           0        4.976000    1.358370    3.978410
     36          6           0        4.347340   -0.710710    4.162580
     37          1           0        4.794000   -0.843770    5.153310
     38          6           0        3.665180   -1.775840    3.548680
     39          1           0        3.578710   -2.741190    4.058090
     40          6           0        3.084390   -1.604130    2.284660
     41          1           0        2.542920   -2.432620    1.815940
     42          6           0        3.394610   -1.342480   -1.107280
     43          6           0        4.732710   -1.647320   -0.773730
     44          1           0        5.177150   -1.234100    0.137040
     45          6           0        5.493960   -2.492670   -1.596750
     46          1           0        6.529230   -2.723481   -1.324610
     47          6           0        4.929040   -3.044350   -2.757570
     48          1           0        5.522430   -3.707130   -3.395800
     49          6           0        3.596780   -2.751990   -3.090440
     50          1           0        3.144670   -3.187010   -3.987620
     51          6           0        2.831430   -1.910120   -2.268640
     52          1           0        1.788530   -1.705440   -2.524490
     53          6           0       -3.190840   -0.366790   -1.614680
     54          6           0       -3.875890    0.696440   -2.233770
     55          1           0       -3.960720    1.661150   -1.725300
     56          6           0       -4.448270    0.519730   -3.505720
     57          1           0       -4.974060    1.354210   -3.981260
     58          6           0       -4.345990   -0.715320   -4.162610
     59          1           0       -4.792240   -0.849440   -5.153390
     60          6           0       -3.664480   -1.779910   -3.547090
     61          1           0       -3.578140   -2.745920   -4.055270
     62          6           0       -3.084170   -1.606860   -2.283030
     63          1           0       -2.543240   -2.434970   -1.813020
     64          6           0       -3.394860   -1.341190    1.108480
     65          6           0       -4.732650   -1.647140    0.774690
     66          1           0       -5.176750   -1.235590   -0.136980
     67          6           0       -5.493990   -2.491430    1.598710
     68          1           0       -6.528990   -2.723149    1.326380
     69          6           0       -4.929520   -3.040900    2.760770
     70          1           0       -5.523010   -3.702840    3.399800
     71          6           0       -3.597550   -2.747420    3.093930
     72          1           0       -3.145790   -3.180710    3.992110
     73          6           0       -2.832100   -1.906650    2.271120
     74          1           0       -1.789420   -1.701110    2.527210
 ---------------------------------------------------------------------

 SCF Done:  E(RB-P86) =  -2064.23962439     A.U. after   17 cycles

 The electronic state is 1-A.
 Alpha  occ. eigenvalues --  -18.84999 -18.84996 -18.84982 -10.01092 -10.01091
 Alpha  occ. eigenvalues --  -10.00933  -9.93538  -9.93537  -9.93372  -9.93372
 Alpha  occ. eigenvalues --   -9.92730  -9.92730  -9.92538  -9.92537  -9.92525
 Alpha  occ. eigenvalues --   -9.92525  -9.92512  -9.92512  -9.92498  -9.92498
 Alpha  occ. eigenvalues --   -9.92455  -9.92454  -9.92450  -9.92450  -9.92350
 Alpha  occ. eigenvalues --   -9.92349  -9.92347  -9.92346  -9.92296  -9.92296
 Alpha  occ. eigenvalues --   -9.92260  -9.92260  -9.91817  -9.91817  -9.91543
 Alpha  occ. eigenvalues --   -9.91543  -9.91426  -9.91426  -9.91029  -9.91028
 Alpha  occ. eigenvalues --   -9.89889  -9.89885  -4.80598  -3.04246  -3.03855
 Alpha  occ. eigenvalues --   -3.03427  -2.89348  -1.78091  -1.77058  -1.76441
 Alpha  occ. eigenvalues --   -1.01073  -1.01054  -1.01025  -0.78710  -0.78698
 Alpha  occ. eigenvalues --   -0.78000  -0.77999  -0.76773  -0.76742  -0.70765
 Alpha  occ. eigenvalues --   -0.70695  -0.68186  -0.68184  -0.68058  -0.68057
 Alpha  occ. eigenvalues --   -0.67756  -0.67753  -0.66890  -0.66879  -0.66327
 Alpha  occ. eigenvalues --   -0.66160  -0.60049  -0.59781  -0.55304  -0.55272
 Alpha  occ. eigenvalues --   -0.55076  -0.55059  -0.54399  -0.54337  -0.53691
 Alpha  occ. eigenvalues --   -0.53618  -0.53025  -0.52778  -0.51588  -0.50475
 Alpha  occ. eigenvalues --   -0.50247  -0.49025  -0.48851  -0.46994  -0.46867
 Alpha  occ. eigenvalues --   -0.46225  -0.46054  -0.44572  -0.44069  -0.41809
 Alpha  occ. eigenvalues --   -0.41295  -0.41248  -0.41172  -0.40930  -0.40670
 Alpha  occ. eigenvalues --   -0.40635  -0.40219  -0.40217  -0.40047  -0.39986
 Alpha  occ. eigenvalues --   -0.39723  -0.39687  -0.39448  -0.39092  -0.38747
 Alpha  occ. eigenvalues --   -0.38588  -0.38561  -0.38338  -0.38289  -0.38051
 Alpha  occ. eigenvalues --   -0.37936  -0.37723  -0.37720  -0.37570  -0.37523
 Alpha  occ. eigenvalues --   -0.37447  -0.37389  -0.37138  -0.36792  -0.36612
 Alpha  occ. eigenvalues --   -0.36182  -0.36141  -0.35636  -0.34985  -0.34183
 Alpha  occ. eigenvalues --   -0.33496  -0.33332  -0.33171  -0.33103  -0.32503
 Alpha  occ. eigenvalues --   -0.32346  -0.31978  -0.31898  -0.31098  -0.30776
 Alpha  occ. eigenvalues --   -0.30611  -0.30585  -0.30342  -0.29634  -0.29364
 Alpha  occ. eigenvalues --   -0.28505  -0.28428  -0.26713  -0.26342  -0.24570
 Alpha  occ. eigenvalues --   -0.24170  -0.23583  -0.23583  -0.23452  -0.23374
 Alpha  occ. eigenvalues --   -0.23360  -0.23082  -0.22823  -0.22387  -0.22340
 Alpha  occ. eigenvalues --   -0.22229  -0.21767  -0.21743  -0.21105  -0.20317
 Alpha  occ. eigenvalues --   -0.16884
 Alpha virt. eigenvalues --   -0.06881  -0.06669  -0.06370  -0.05992  -0.05720
 Alpha virt. eigenvalues --   -0.05410  -0.05376  -0.04996  -0.04815  -0.04395
 Alpha virt. eigenvalues --   -0.04193  -0.03937  -0.03277  -0.03094  -0.02756

 Mulliken charges:
               1
     1  Ru  -0.695830
     2  Zn   0.045361
     3  P    0.168115
     4  P    0.168105
     5  O   -0.297136
     6  O   -0.279783
     7  O   -0.279749
     8  C    0.372643
     9  C    0.273090
    10  C    0.273136
    11  C    0.070691
    12  C   -0.053786
    13  C   -0.099101
    14  H    0.103605
    15  C   -0.119285
    16  H    0.107794
    17  C   -0.095256
    18  H    0.105741
    19  C   -0.160655
    20  H    0.105626
    21  C    0.070715
    22  C   -0.160648
    23  H    0.105623
    24  C   -0.095254
    25  H    0.105741
    26  C   -0.119295
    27  H    0.107795
    28  C   -0.099084
    29  H    0.103616
    30  C   -0.053789
    31  C    0.004635
    32  C   -0.116074
    33  H    0.125637
    34  C   -0.106569
    35  H    0.115486
    36  C   -0.100085
    37  H    0.113996
    38  C   -0.108836
    39  H    0.116826
    40  C   -0.107842
    41  H    0.139099
    42  C    0.018594
    43  C   -0.121795
    44  H    0.123617
    45  C   -0.110280
    46  H    0.115209
    47  C   -0.099290
    48  H    0.115097
    49  C   -0.108445
    50  H    0.118982
    51  C   -0.102070
    52  H    0.134750
    53  C    0.004597
    54  C   -0.116066
    55  H    0.125641
    56  C   -0.106567
    57  H    0.115488
    58  C   -0.100077
    59  H    0.113998
    60  C   -0.108842
    61  H    0.116823
    62  C   -0.107841
    63  H    0.139103
    64  C    0.018599
    65  C   -0.121810
    66  H    0.123611
    67  C   -0.110263
    68  H    0.115205
    69  C   -0.099299
    70  H    0.115094
    71  C   -0.108447
    72  H    0.118985
    73  C   -0.102065
    74  H    0.134742
 Sum of Mulliken charges =   0.00000

 Dipole moment (field-independent basis, Debye):
    X=              0.0002    Y=             -1.0927    Z=             -0.0010  Tot=              1.0927
 Quadrupole moment (field-independent basis, Debye-Ang):
   XX=           -245.3305   YY=           -283.7394   ZZ=           -283.7741
   XY=              0.0056   XZ=              5.2554   YZ=              0.0055

 Normal termination of Gaussian 09 at Sat Apr 11 14:05:15 2020.
