 Gaussian 09, Revision D.01,
 Gaussian 09:  EM64L-G09RevD.01 24-Apr-2013

 --------------------------------------------------------------
 # gen bp86 int=ultrafine pseudo=read empiricaldispersion=gd3bj
 --------------------------------------------------------------

 -------------------------------
 Ru (PPh3)3 H4 from high temp MD
 -------------------------------
 Symbolic Z-matrix:
 Charge =  0 Multiplicity = 1

                         Standard orientation:
 ---------------------------------------------------------------------
 Center     Atomic      Atomic             Coordinates (Angstroms)
 Number     Number       Type             X           Y           Z
 ---------------------------------------------------------------------
      1         44           0       -0.000040   -0.563420    0.000410
      2         30           0        0.000070    2.161890   -0.000380
      3         15           0        2.375000   -0.185610   -0.052260
      4         15           0       -2.375080   -0.185540    0.052290
      5          8           0       -0.000250   -3.664510    0.002580
      6          8           0        0.059920    0.355070    2.960620
      7          8           0       -0.059830    0.352000   -2.960750
      8          6           0       -0.000140   -2.490330    0.001660
      9          6           0        0.043930   -0.005550    1.841220
     10          6           0       -0.043910   -0.007630   -1.841050
     11          6           0        1.870390    2.580830   -0.507360
     12          6           0        2.835640    1.542360   -0.615050
     13          6           0        4.142660    1.787220   -1.091010
     14          1           0        4.864520    0.968870   -1.183350
     15          6           0        4.519550    3.085630   -1.465280
     16          1           0        5.530080    3.271780   -1.844360
     17          6           0        3.594760    4.135990   -1.355680
     18          1           0        3.882391    5.152240   -1.648640
     19          6           0        2.297200    3.879080   -0.882110
     20          1           0        1.591491    4.716200   -0.816790
     21          6           0       -1.870490    2.581310    0.505340
     22          6           0       -2.297430    3.879860    0.878910
     23          1           0       -1.591579    4.716860    0.813530
     24          6           0       -3.595300    4.137250    1.351330
     25          1           0       -3.883039    5.153730    1.643390
     26          6           0       -4.520330    3.087090    1.460910
     27          1           0       -5.531130    3.273640    1.839050
     28          6           0       -4.143290    1.788370    1.087870
     29          1           0       -4.865310    0.970150    1.180220
     30          6           0       -2.835910    1.543020    0.613120
     31          6           0        3.191190   -0.364940    1.614720
     32          6           0        3.876880    0.698820    2.232200
     33          1           0        3.961780    1.662890    1.722520
     34          6           0        4.449740    0.523490    3.504120
     35          1           0        4.976000    1.358370    3.978410
     36          6           0        4.347340   -0.710710    4.162580
     37          1           0        4.794000   -0.843770    5.153310
     38          6           0        3.665180   -1.775840    3.548680
     39          1           0        3.578710   -2.741190    4.058090
     40          6           0        3.084390   -1.604130    2.284660
     41          1           0        2.542920   -2.432620    1.815940
     42          6           0        3.394610   -1.342480   -1.107280
     43          6           0        4.732710   -1.647320   -0.773730
     44          1           0        5.177150   -1.234100    0.137040
     45          6           0        5.493960   -2.492670   -1.596750
     46          1           0        6.529230   -2.723481   -1.324610
     47          6           0        4.929040   -3.044350   -2.757570
     48          1           0        5.522430   -3.707130   -3.395800
     49          6           0        3.596780   -2.751990   -3.090440
     50          1           0        3.144670   -3.187010   -3.987620
     51          6           0        2.831430   -1.910120   -2.268640
     52          1           0        1.788530   -1.705440   -2.524490
     53          6           0       -3.190840   -0.366790   -1.614680
     54          6           0       -3.875890    0.696440   -2.233770
     55          1           0       -3.960720    1.661150   -1.725300
     56          6           0       -4.448270    0.519730   -3.505720
     57          1           0       -4.974060    1.354210   -3.981260
     58          6           0       -4.345990   -0.715320   -4.162610
     59          1           0       -4.792240   -0.849440   -5.153390
     60          6           0       -3.664480   -1.779910   -3.547090
     61          1           0       -3.578140   -2.745920   -4.055270
     62          6           0       -3.084170   -1.606860   -2.283030
     63          1           0       -2.543240   -2.434970   -1.813020
     64          6           0       -3.394860   -1.341190    1.108480
     65          6           0       -4.732650   -1.647140    0.774690
     66          1           0       -5.176750   -1.235590   -0.136980
     67          6           0       -5.493990   -2.491430    1.598710
     68          1           0       -6.528990   -2.723149    1.326380
     69          6           0       -4.929520   -3.040900    2.760770
     70          1           0       -5.523010   -3.702840    3.399800
     71          6           0       -3.597550   -2.747420    3.093930
     72          1           0       -3.145790   -3.180710    3.992110
     73          6           0       -2.832100   -1.906650    2.271120
     74          1           0       -1.789420   -1.701110    2.527210
 ---------------------------------------------------------------------

 SCF Done:  E(RB-P86) =  -2064.48355983     A.U. after   18 cycles

 The electronic state is 1-A.
 Alpha  occ. eigenvalues --  -18.84505 -18.84502 -18.84476 -10.00616 -10.00614
 Alpha  occ. eigenvalues --  -10.00440  -9.93394  -9.93394  -9.93209  -9.93209
 Alpha  occ. eigenvalues --   -9.92661  -9.92661  -9.92505  -9.92504  -9.92455
 Alpha  occ. eigenvalues --   -9.92454  -9.92421  -9.92420  -9.92403  -9.92402
 Alpha  occ. eigenvalues --   -9.92324  -9.92323  -9.92320  -9.92320  -9.92317
 Alpha  occ. eigenvalues --   -9.92317  -9.92270  -9.92270  -9.92251  -9.92250
 Alpha  occ. eigenvalues --   -9.92210  -9.92210  -9.91603  -9.91603  -9.91364
 Alpha  occ. eigenvalues --   -9.91364  -9.91231  -9.91231  -9.90801  -9.90800
 Alpha  occ. eigenvalues --   -9.89678  -9.89675  -4.80553  -3.04223  -3.03797
 Alpha  occ. eigenvalues --   -3.03370  -2.88966  -1.77702  -1.76691  -1.76053
 Alpha  occ. eigenvalues --   -1.00553  -1.00534  -1.00496  -0.78593  -0.78582
 Alpha  occ. eigenvalues --   -0.77897  -0.77897  -0.76541  -0.76510  -0.70631
 Alpha  occ. eigenvalues --   -0.70563  -0.68118  -0.68115  -0.67961  -0.67961
 Alpha  occ. eigenvalues --   -0.67677  -0.67674  -0.66701  -0.66687  -0.66109
 Alpha  occ. eigenvalues --   -0.65941  -0.59895  -0.59633  -0.55245  -0.55215
 Alpha  occ. eigenvalues --   -0.54996  -0.54983  -0.54327  -0.54275  -0.53542
 Alpha  occ. eigenvalues --   -0.53469  -0.52869  -0.52610  -0.51256  -0.50345
 Alpha  occ. eigenvalues --   -0.49976  -0.48478  -0.48331  -0.46952  -0.46799
 Alpha  occ. eigenvalues --   -0.46135  -0.45973  -0.44450  -0.43945  -0.41410
 Alpha  occ. eigenvalues --   -0.41240  -0.41191  -0.41066  -0.40820  -0.40567
 Alpha  occ. eigenvalues --   -0.40468  -0.40140  -0.40125  -0.39892  -0.39819
 Alpha  occ. eigenvalues --   -0.39439  -0.39395  -0.39096  -0.38852  -0.38544
 Alpha  occ. eigenvalues --   -0.38347  -0.38310  -0.38002  -0.37940  -0.37939
 Alpha  occ. eigenvalues --   -0.37843  -0.37665  -0.37571  -0.37333  -0.37287
 Alpha  occ. eigenvalues --   -0.37278  -0.37187  -0.36838  -0.36654  -0.36442
 Alpha  occ. eigenvalues --   -0.36019  -0.35996  -0.35335  -0.34822  -0.34036
 Alpha  occ. eigenvalues --   -0.33367  -0.33212  -0.33017  -0.32943  -0.32374
 Alpha  occ. eigenvalues --   -0.32191  -0.31789  -0.31667  -0.31020  -0.30746
 Alpha  occ. eigenvalues --   -0.30545  -0.30519  -0.30232  -0.29509  -0.29260
 Alpha  occ. eigenvalues --   -0.28322  -0.28254  -0.26489  -0.26196  -0.24341
 Alpha  occ. eigenvalues --   -0.24035  -0.23444  -0.23438  -0.23269  -0.23192
 Alpha  occ. eigenvalues --   -0.23158  -0.22898  -0.22664  -0.22111  -0.22088
 Alpha  occ. eigenvalues --   -0.21953  -0.21492  -0.21364  -0.20839  -0.20089
 Alpha  occ. eigenvalues --   -0.16568
 Alpha virt. eigenvalues --   -0.06620  -0.06477  -0.06088  -0.05853  -0.05532
 Alpha virt. eigenvalues --   -0.05171  -0.05067  -0.04856  -0.04643  -0.04227
 Alpha virt. eigenvalues --   -0.03945  -0.03794  -0.02989  -0.02827  -0.02468

 Mulliken charges:
               1
     1  Ru  -0.687253
     2  Zn   0.040921
     3  P    0.165539
     4  P    0.165527
     5  O   -0.289122
     6  O   -0.270769
     7  O   -0.270734
     8  C    0.370964
     9  C    0.270155
    10  C    0.270199
    11  C    0.074357
    12  C   -0.053256
    13  C   -0.095598
    14  H    0.099079
    15  C   -0.113115
    16  H    0.099526
    17  C   -0.088908
    18  H    0.098122
    19  C   -0.152717
    20  H    0.100548
    21  C    0.074382
    22  C   -0.152710
    23  H    0.100544
    24  C   -0.088906
    25  H    0.098122
    26  C   -0.113126
    27  H    0.099528
    28  C   -0.095578
    29  H    0.099088
    30  C   -0.053261
    31  C    0.004473
    32  C   -0.112892
    33  H    0.124830
    34  C   -0.100806
    35  H    0.107264
    36  C   -0.094425
    37  H    0.105017
    38  C   -0.103203
    39  H    0.108334
    40  C   -0.104043
    41  H    0.136593
    42  C    0.019634
    43  C   -0.119712
    44  H    0.119693
    45  C   -0.105018
    46  H    0.106186
    47  C   -0.093863
    48  H    0.105984
    49  C   -0.102725
    50  H    0.111016
    51  C   -0.097294
    52  H    0.134200
    53  C    0.004436
    54  C   -0.112880
    55  H    0.124831
    56  C   -0.100803
    57  H    0.107267
    58  C   -0.094416
    59  H    0.105018
    60  C   -0.103210
    61  H    0.108331
    62  C   -0.104044
    63  H    0.136594
    64  C    0.019640
    65  C   -0.119730
    66  H    0.119688
    67  C   -0.105000
    68  H    0.106182
    69  C   -0.093871
    70  H    0.105981
    71  C   -0.102727
    72  H    0.111019
    73  C   -0.097295
    74  H    0.134197
 Sum of Mulliken charges =   0.00000

 Dipole moment (field-independent basis, Debye):
    X=              0.0002    Y=             -1.0222    Z=             -0.0008  Tot=              1.0222
 Quadrupole moment (field-independent basis, Debye-Ang):
   XX=           -251.0188   YY=           -285.2133   ZZ=           -285.3629
   XY=              0.0052   XZ=              4.9008   YZ=              0.0049

 Normal termination of Gaussian 09 at Sat Apr 11 14:02:50 2020.
