 Gaussian 09, Revision D.01,
 Gaussian 09:  EM64L-G09RevD.01 24-Apr-2013

 ------------------------------------
 # gen bp86 int=ultrafine pseudo=read
 ------------------------------------

 -------------------------------
 Ru (PPh3)3 H4 from high temp MD
 -------------------------------
 Symbolic Z-matrix:
 Charge =  0 Multiplicity = 1

                         Standard orientation:
 ---------------------------------------------------------------------
 Center     Atomic      Atomic             Coordinates (Angstroms)
 Number     Number       Type             X           Y           Z
 ---------------------------------------------------------------------
      1         44           0       -0.000040   -0.563420    0.000410
      2         30           0        0.000070    2.161890   -0.000380
      3         15           0        2.375000   -0.185610   -0.052260
      4         15           0       -2.375080   -0.185540    0.052290
      5          8           0       -0.000250   -3.664510    0.002580
      6          8           0        0.059920    0.355070    2.960620
      7          8           0       -0.059830    0.352000   -2.960750
      8          6           0       -0.000140   -2.490330    0.001660
      9          6           0        0.043930   -0.005550    1.841220
     10          6           0       -0.043910   -0.007630   -1.841050
     11          6           0        1.870390    2.580830   -0.507360
     12          6           0        2.835640    1.542360   -0.615050
     13          6           0        4.142660    1.787220   -1.091010
     14          1           0        4.864520    0.968870   -1.183350
     15          6           0        4.519550    3.085630   -1.465280
     16          1           0        5.530080    3.271780   -1.844360
     17          6           0        3.594760    4.135990   -1.355680
     18          1           0        3.882391    5.152240   -1.648640
     19          6           0        2.297200    3.879080   -0.882110
     20          1           0        1.591491    4.716200   -0.816790
     21          6           0       -1.870490    2.581310    0.505340
     22          6           0       -2.297430    3.879860    0.878910
     23          1           0       -1.591579    4.716860    0.813530
     24          6           0       -3.595300    4.137250    1.351330
     25          1           0       -3.883039    5.153730    1.643390
     26          6           0       -4.520330    3.087090    1.460910
     27          1           0       -5.531130    3.273640    1.839050
     28          6           0       -4.143290    1.788370    1.087870
     29          1           0       -4.865310    0.970150    1.180220
     30          6           0       -2.835910    1.543020    0.613120
     31          6           0        3.191190   -0.364940    1.614720
     32          6           0        3.876880    0.698820    2.232200
     33          1           0        3.961780    1.662890    1.722520
     34          6           0        4.449740    0.523490    3.504120
     35          1           0        4.976000    1.358370    3.978410
     36          6           0        4.347340   -0.710710    4.162580
     37          1           0        4.794000   -0.843770    5.153310
     38          6           0        3.665180   -1.775840    3.548680
     39          1           0        3.578710   -2.741190    4.058090
     40          6           0        3.084390   -1.604130    2.284660
     41          1           0        2.542920   -2.432620    1.815940
     42          6           0        3.394610   -1.342480   -1.107280
     43          6           0        4.732710   -1.647320   -0.773730
     44          1           0        5.177150   -1.234100    0.137040
     45          6           0        5.493960   -2.492670   -1.596750
     46          1           0        6.529230   -2.723481   -1.324610
     47          6           0        4.929040   -3.044350   -2.757570
     48          1           0        5.522430   -3.707130   -3.395800
     49          6           0        3.596780   -2.751990   -3.090440
     50          1           0        3.144670   -3.187010   -3.987620
     51          6           0        2.831430   -1.910120   -2.268640
     52          1           0        1.788530   -1.705440   -2.524490
     53          6           0       -3.190840   -0.366790   -1.614680
     54          6           0       -3.875890    0.696440   -2.233770
     55          1           0       -3.960720    1.661150   -1.725300
     56          6           0       -4.448270    0.519730   -3.505720
     57          1           0       -4.974060    1.354210   -3.981260
     58          6           0       -4.345990   -0.715320   -4.162610
     59          1           0       -4.792240   -0.849440   -5.153390
     60          6           0       -3.664480   -1.779910   -3.547090
     61          1           0       -3.578140   -2.745920   -4.055270
     62          6           0       -3.084170   -1.606860   -2.283030
     63          1           0       -2.543240   -2.434970   -1.813020
     64          6           0       -3.394860   -1.341190    1.108480
     65          6           0       -4.732650   -1.647140    0.774690
     66          1           0       -5.176750   -1.235590   -0.136980
     67          6           0       -5.493990   -2.491430    1.598710
     68          1           0       -6.528990   -2.723149    1.326380
     69          6           0       -4.929520   -3.040900    2.760770
     70          1           0       -5.523010   -3.702840    3.399800
     71          6           0       -3.597550   -2.747420    3.093930
     72          1           0       -3.145790   -3.180710    3.992110
     73          6           0       -2.832100   -1.906650    2.271120
     74          1           0       -1.789420   -1.701110    2.527210
 ---------------------------------------------------------------------

 SCF Done:  E(RB-P86) =  -4286.95736880     A.U. after   18 cycles

 The electronic state is 1-A.
 Alpha  occ. eigenvalues -- -345.78758 -76.39385 -76.39385 -41.64908 -36.71668
 Alpha  occ. eigenvalues --  -36.71466 -36.71298 -18.81952 -18.81939 -18.81938
 Alpha  occ. eigenvalues --   -9.99581  -9.99581  -9.99408  -9.92724  -9.92724
 Alpha  occ. eigenvalues --   -9.92560  -9.92560  -9.91795  -9.91794  -9.91593
 Alpha  occ. eigenvalues --   -9.91593  -9.91587  -9.91587  -9.91581  -9.91580
 Alpha  occ. eigenvalues --   -9.91567  -9.91567  -9.91516  -9.91516  -9.91474
 Alpha  occ. eigenvalues --   -9.91474  -9.91421  -9.91421  -9.91397  -9.91397
 Alpha  occ. eigenvalues --   -9.91354  -9.91354  -9.91310  -9.91310  -9.90728
 Alpha  occ. eigenvalues --   -9.90728  -9.90444  -9.90444  -9.90330  -9.90330
 Alpha  occ. eigenvalues --   -9.89929  -9.89928  -9.89046  -9.89046  -6.34893
 Alpha  occ. eigenvalues --   -6.34893  -4.59370  -4.56537  -4.56536  -4.56473
 Alpha  occ. eigenvalues --   -4.56473  -4.56272  -4.56272  -3.03047  -3.02637
 Alpha  occ. eigenvalues --   -3.02221  -2.89775  -1.78772  -1.77851  -1.77299
 Alpha  occ. eigenvalues --   -1.00837  -1.00819  -1.00816  -0.79180  -0.79172
 Alpha  occ. eigenvalues --   -0.78540  -0.78540  -0.77159  -0.77129  -0.71031
 Alpha  occ. eigenvalues --   -0.70970  -0.68692  -0.68690  -0.68559  -0.68558
 Alpha  occ. eigenvalues --   -0.68256  -0.68253  -0.67267  -0.67254  -0.66692
 Alpha  occ. eigenvalues --   -0.66528  -0.60178  -0.59917  -0.55843  -0.55813
 Alpha  occ. eigenvalues --   -0.55609  -0.55595  -0.54931  -0.54881  -0.54151
 Alpha  occ. eigenvalues --   -0.54078  -0.53475  -0.53223  -0.51864  -0.50881
 Alpha  occ. eigenvalues --   -0.50541  -0.49196  -0.48994  -0.47626  -0.47475
 Alpha  occ. eigenvalues --   -0.46781  -0.46603  -0.45064  -0.44545  -0.42166
 Alpha  occ. eigenvalues --   -0.41874  -0.41814  -0.41807  -0.41632  -0.41425
 Alpha  occ. eigenvalues --   -0.41213  -0.40932  -0.40850  -0.40623  -0.40609
 Alpha  occ. eigenvalues --   -0.40280  -0.40258  -0.39985  -0.39675  -0.39222
 Alpha  occ. eigenvalues --   -0.39185  -0.39066  -0.38842  -0.38800  -0.38731
 Alpha  occ. eigenvalues --   -0.38730  -0.38374  -0.38339  -0.38229  -0.38109
 Alpha  occ. eigenvalues --   -0.38052  -0.37982  -0.37769  -0.37508  -0.37140
 Alpha  occ. eigenvalues --   -0.36726  -0.36702  -0.36058  -0.35532  -0.34724
 Alpha  occ. eigenvalues --   -0.34212  -0.34094  -0.33877  -0.33835  -0.33162
 Alpha  occ. eigenvalues --   -0.32966  -0.32608  -0.32558  -0.31705  -0.31427
 Alpha  occ. eigenvalues --   -0.31253  -0.31227  -0.30970  -0.30247  -0.30002
 Alpha  occ. eigenvalues --   -0.29044  -0.28961  -0.27241  -0.26631  -0.25249
 Alpha  occ. eigenvalues --   -0.24976  -0.24412  -0.24394  -0.24210  -0.24143
 Alpha  occ. eigenvalues --   -0.24052  -0.23828  -0.23577  -0.23044  -0.23026
 Alpha  occ. eigenvalues --   -0.22895  -0.22445  -0.22166  -0.21670  -0.20941
 Alpha  occ. eigenvalues --   -0.17411
 Alpha virt. eigenvalues --   -0.07806  -0.07612  -0.07288  -0.07172  -0.06781
 Alpha virt. eigenvalues --   -0.06388  -0.06200  -0.06177  -0.05823  -0.05498
 Alpha virt. eigenvalues --   -0.05124  -0.05021  -0.04211  -0.04023  -0.03463

 Mulliken charges:
               1
     1  Ru  -0.008418
     2  Zn  -0.291760
     3  P    0.564077
     4  P    0.564219
     5  O   -0.131501
     6  O   -0.117673
     7  O   -0.117606
     8  C   -0.086857
     9  C   -0.081961
    10  C   -0.081994
    11  C   -0.006916
    12  C   -0.012608
    13  C   -0.189501
    14  H    0.144136
    15  C   -0.097060
    16  H    0.108289
    17  C   -0.131351
    18  H    0.106246
    19  C   -0.048721
    20  H    0.124075
    21  C   -0.006859
    22  C   -0.048725
    23  H    0.124071
    24  C   -0.131370
    25  H    0.106245
    26  C   -0.096990
    27  H    0.108293
    28  C   -0.189523
    29  H    0.144077
    30  C   -0.012786
    31  C   -0.088349
    32  C   -0.100311
    33  H    0.166864
    34  C   -0.140374
    35  H    0.113756
    36  C   -0.089144
    37  H    0.114208
    38  C   -0.110531
    39  H    0.114532
    40  C   -0.169982
    41  H    0.151089
    42  C   -0.045039
    43  C   -0.198686
    44  H    0.167377
    45  C   -0.117285
    46  H    0.114987
    47  C   -0.098688
    48  H    0.114693
    49  C   -0.130877
    50  H    0.114385
    51  C   -0.148486
    52  H    0.164077
    53  C   -0.088354
    54  C   -0.100292
    55  H    0.166875
    56  C   -0.140387
    57  H    0.113758
    58  C   -0.089154
    59  H    0.114208
    60  C   -0.110490
    61  H    0.114532
    62  C   -0.170051
    63  H    0.151093
    64  C   -0.044918
    65  C   -0.198542
    66  H    0.167354
    67  C   -0.117321
    68  H    0.114985
    69  C   -0.098673
    70  H    0.114692
    71  C   -0.130890
    72  H    0.114390
    73  C   -0.148626
    74  H    0.164050
 Sum of Mulliken charges =   0.00000

 Dipole moment (field-independent basis, Debye):
    X=              0.0003    Y=             -0.9978    Z=             -0.0007  Tot=              0.9978
 Quadrupole moment (field-independent basis, Debye-Ang):
   XX=           -262.7460   YY=           -292.6152   ZZ=           -292.9000
   XY=              0.0056   XZ=              4.9589   YZ=              0.0050

 Normal termination of Gaussian 09 at Sat Apr 11 15:02:25 2020.
